----- GAMESS execution script 'rungms' -----
This job is running on host chemcompute-node-0.novalocal
under operating system Linux at Sun Nov 7 03:10:29 UTC 2021
SLURM has assigned the following compute nodes to this run:
chemcompute-node-0
Available scratch disk space (Kbyte units) at beginning of the job is
Filesystem     1K-blocks     Used Available Use% Mounted on
/dev/sda1       62903276 16888460  46014816  27% /
GAMESS temporary binary files will be written to /scratch/301912
GAMESS supplementary output files will be written to /data/slurm/336959
Copying input file 336959.inp to your run's scratch directory...
The generated host list is
chemcompute-node-0.novalocal

 Distributed Data Interface kickoff program.
 Initiating 1 compute processes on 1 nodes to run the following command:
 /data/gamess-2019R1-ddi/gamess.00.x 336959 

          ******************************************************
          *         GAMESS VERSION = 30 JUN 2019 (R1)          *
          *             FROM IOWA STATE UNIVERSITY             *
          * M.W.SCHMIDT, K.K.BALDRIDGE, J.A.BOATZ, S.T.ELBERT, *
          *   M.S.GORDON, J.H.JENSEN, S.KOSEKI, N.MATSUNAGA,   *
          *          K.A.NGUYEN, S.J.SU, T.L.WINDUS,           *
          *       TOGETHER WITH M.DUPUIS, J.A.MONTGOMERY       *
          *         J.COMPUT.CHEM.  14, 1347-1363(1993)        *
          **************** 64 BIT LINUX VERSION ****************

  SINCE 1993, STUDENTS AND POSTDOCS WORKING AT IOWA STATE UNIVERSITY
  AND ALSO IN THEIR VARIOUS JOBS AFTER LEAVING ISU HAVE MADE IMPORTANT
  CONTRIBUTIONS TO THE CODE:
     IVANA ADAMOVIC, CHRISTINE AIKENS, YURI ALEXEEV, POOJA ARORA,
     ANDREY ASADCHEV, ROB BELL, PRADIPTA BANDYOPADHYAY, JONATHAN BENTZ,
     COLLEEN BERTONI, BRETT BODE, KURT BRORSEN, CALEB CARLIN, GALINA CHABAN,
     WEI CHEN, CHEOL HO CHOI, PAUL DAY, ALBERT DEFUSCO, NUWAN DESILVA,
     TIM DUDLEY, DMITRI FEDOROV, ALEX FINDLATER, GRAHAM FLETCHER, 
     MARK FREITAG, KURT GLAESEMANN, ANASTASIA GUNINA,
     DAN KEMP, GRANT MERRILL, NORIYUKI MINEZAWA, JONATHAN MULLIN,
     TAKESHI NAGATA, SEAN NEDD, HEATHER NETZLOFF, BOSILJKA NJEGIC, RYAN OLSON,
     MIKE PAK, BUU PHAM,
     SPENCER PRUITT, LUKE ROSKOP, JIM SHOEMAKER, LYUDMILA SLIPCHENKO,
     TONY SMITH, SAROM SOK LEANG, JIE SONG, TETSUYA TAKETSUGU, SIMON WEBB,
     PENG XU, SOOHAENG YOO, FEDERICO ZAHARIEV

  ADDITIONAL CODE HAS BEEN PROVIDED BY COLLABORATORS IN OTHER GROUPS:
     IOWA STATE UNIVERSITY:
          JOE IVANIC, AARON WEST, LAIMUTIS BYTAUTAS, KLAUS RUEDENBERG
     UNIVERSITY OF TOKYO: KIMIHIKO HIRAO, TAKAHITO NAKAJIMA,
          TAKAO TSUNEDA, MUNEAKI KAMIYA, SUSUMU YANAGISAWA,
          KIYOSHI YAGI, MAHITO CHIBA, SEIKEN TOKURA, NAOAKI KAWAKAMI
     UNIVERSITY OF AARHUS: FRANK JENSEN
     UNIVERSITY OF IOWA: VISVALDAS KAIRYS, HUI LI
     NATIONAL INST. OF STANDARDS AND TECHNOLOGY: WALT STEVENS, DAVID GARMER
     UNIVERSITY OF PISA: BENEDETTA MENNUCCI, JACOPO TOMASI
     UNIVERSITY OF MEMPHIS: HENRY KURTZ, PRAKASHAN KORAMBATH
     UNIVERSITY OF ALBERTA: TOBY ZENG, MARIUSZ KLOBUKOWSKI
     UNIVERSITY OF NEW ENGLAND: MARK SPACKMAN
     MIE UNIVERSITY: HIROAKI UMEDA
     NAT. INST. OF ADVANCED INDUSTRIAL SCIENCE AND TECHNOLOGY: KAZUO KITAURA
     MICHIGAN STATE UNIVERSITY:
          KAROL KOWALSKI, MARTA WLOCH, JEFFREY GOUR, JESSE LUTZ,
          WEI LI, JUN SHEN, J. EMILIANO DEUSTUA, PIOTR PIECUCH
     UNIVERSITY OF MINNESOTA:
          YINAN SHU
     UNIVERSITY OF SILESIA: MONIKA MUSIAL, STANISLAW KUCHARSKI
     FACULTES UNIVERSITAIRES NOTRE-DAME DE LA PAIX:
          OLIVIER QUINET, BENOIT CHAMPAGNE
     UNIVERSITY OF CALIFORNIA - SANTA BARBARA: BERNARD KIRTMAN
     INSTITUTE FOR MOLECULAR SCIENCE:
          KAZUYA ISHIMURA, MICHIO KATOUDA, AND SHIGERU NAGASE
     UNIVERSITY OF NOTRE DAME: ANNA POMOGAEVA, DAN CHIPMAN
     KYUSHU UNIVERSITY:
          HARUYUKI NAKANO,
          FENG LONG GU, JACEK KORCHOWIEC, MARCIN MAKOWSKI, AND YURIKO AOKI,
          HIROTOSHI MORI AND EISAKU MIYOSHI
     PENNSYLVANIA STATE UNIVERSITY:
          TZVETELIN IORDANOV, CHET SWALINA, JONATHAN SKONE,
          SHARON HAMMES-SCHIFFER
     WASEDA UNIVERSITY:
          MASATO KOBAYASHI, TOMOKO AKAMA, TSUGUKI TOUMA,
          TAKESHI YOSHIKAWA, YASUHIRO IKABATA, JUNJI SEINO,
          YUYA NAKAJIMA, HIROMI NAKAI
     NANJING UNIVERSITY: SHUHUA LI
     UNIVERSITY OF NEBRASKA:
          PEIFENG SU, DEJUN SI, NANDUN THELLAMUREGE, YALI WANG, HUI LI
     UNIVERSITY OF ZURICH: ROBERTO PEVERATI, KIM BALDRIDGE
     N. COPERNICUS UNIVERSITY AND JACKSON STATE UNIVERSITY:
          MARIA BARYSZ
     UNIVERSITY OF COPENHAGEN: Jimmy Kromann, CASPER STEINMANN
     TOKYO INSTITUTE OF TECHNOLOGY: HIROYA NAKATA
     NAGOYA UNIVERSITY: YOSHIO NISHIMOTO, STEPHAN IRLE
     MOSCOW STATE UNIVERSITY: VLADIMIR MIRONOV
     A.N.NESMEYANOV INSTITUTE OF ORGANOELEMENT COMPOUNDS OF RUSSIAN ACADEMY OF SCIENCES:
          IGOR S. GERASIMOV

 EXECUTION OF GAMESS BEGUN Sun Nov  7 03:10:29 2021

            ECHO OF THE FIRST FEW INPUT CARDS -
 INPUT CARD>!File created by the GAMESS Input Deck Generator Plugin for Avogadro            
 INPUT CARD> $BASIS GBASIS=STO NGAUSS=3 $END                                                
 INPUT CARD> $CONTRL SCFTYP=RHF RUNTYP=Optimize NZVAR=1 mult=1  ICHARG=0 $END               
 INPUT CARD> $STATPT hssend=.t. OPTTOL=0.0005 NSTEP=50 $END                                 
 INPUT CARD> $STATPT HESS=calc ihrep=5 $END                                                 
 INPUT CARD> $FORCE nvib=2 $END                                                             
 INPUT CARD> $ZMAT DLC=.t. auto=.t. nonvdw(1)=1,6,3,4 $END                                  
 INPUT CARD> $ZMAT IFZMAT(1)=1,1,6,1,3,4 fvalue(1)=2.00,2.20 $END                           
 INPUT CARD>                                                                                
 INPUT CARD> $DATA                                                                          
 INPUT CARD>Title                                                                           
 INPUT CARD>C1                                                                              
 INPUT CARD>C     6.0     2.98412    -0.87538    -3.06348                                   
 INPUT CARD>C     6.0     2.67939    -1.00709    -1.77023                                   
 INPUT CARD>C     6.0     2.99066     0.09449    -0.78888                                   
 INPUT CARD>C     6.0     4.50382     0.33956    -0.59651                                   
 INPUT CARD>C     6.0     5.25998    -0.65937    -1.45706                                   
 INPUT CARD>C     6.0     6.13374    -0.30259    -2.41103                                   
 INPUT CARD>C     6.0     6.43535     1.11313    -2.69227                                   
 INPUT CARD>C     6.0     5.85430     2.09198    -1.99324                                   
 INPUT CARD>C     6.0     4.88707     1.78050    -0.92112                                   
 INPUT CARD>O     8.0     4.40446     2.70412    -0.28487                                   
 INPUT CARD>H     1.0     2.75925    -1.67712    -3.75941                                   
 INPUT CARD>H     1.0     3.45758     0.02796    -3.43646                                   
 INPUT CARD>H     1.0     2.21110    -1.92890    -1.44067                                   
 INPUT CARD>H     1.0     2.52026     1.02221    -1.18473                                   
 INPUT CARD>H     1.0     2.53018    -0.13955     0.19687                                   
 INPUT CARD>H     1.0     4.77569     0.12887     0.46084                                   
 INPUT CARD>H     1.0     5.08280    -1.71845    -1.29150                                   
 INPUT CARD>H     1.0     6.63577    -1.07131    -2.99014                                   
 INPUT CARD>H     1.0     7.14617     1.35936    -3.47478                                   
 INPUT CARD>H     1.0     6.09988     3.12669    -2.21426                                   
 INPUT CARD> $END                                                                           
    1000000 WORDS OF MEMORY AVAILABLE

     BASIS OPTIONS
     -------------
     GBASIS=STO          IGAUSS=       3      POLAR=NONE    
     NDFUNC=       0     NFFUNC=       0     DIFFSP=       F
     NPFUNC=       0      DIFFS=       F     BASNAM=        


     RUN TITLE
     ---------
 Title                                                                           

 THE POINT GROUP OF THE MOLECULE IS C1      
 THE ORDER OF THE PRINCIPAL AXIS IS     0

 ATOM      ATOMIC                      COORDINATES (BOHR)
           CHARGE         X                   Y                   Z
 C           6.0     5.6391691145       -1.6542283351       -5.7891377689
 C           6.0     5.0633129142       -1.9031241450       -3.3452496352
 C           6.0     5.6515279224        0.1785602086       -1.4907670372
 C           6.0     8.5109856980        0.6416753564       -1.1272404489
 C           6.0     9.9399209009       -1.2460286245       -2.7534441477
 C           6.0    11.5910878799       -0.5718121866       -4.5561860482
 C           6.0    12.1610481351        2.1035106887       -5.0876525850
 C           6.0    11.0630228499        3.9532689718       -3.7666774278
 C           6.0     9.2352231828        3.3646571211       -1.7406644018
 O           8.0     8.3232225239        5.1100458379       -0.5383262421
 H           1.0     5.2142264316       -3.1692972485       -7.1042547755
 H           1.0     6.5338787806        0.0528367386       -6.4939677678
 H           1.0     4.1783731315       -3.6450924577       -2.7224715387
 H           1.0     4.7626008178        1.9316968019       -2.2388150694
 H           1.0     4.7813468996       -0.2637112616        0.3720303552
 H           1.0     9.0247455023        0.2435289880        0.8708613242
 H           1.0     9.6050992504       -3.2473996236       -2.4405811131
 H           1.0    12.5397870175       -2.0244823479       -5.6505452649
 H           1.0    13.5043031617        2.5688179187       -6.5663820676
 H           1.0    11.5271017580        5.9085873486       -4.1843446656

          INTERNUCLEAR DISTANCES (ANGS.)
          ------------------------------

                1 C          2 C          3 C          4 C          5 C     

   1 C       0.0000000    1.3351792 *  2.4727506 *  3.1418956    2.7940623 *
   2 C       1.3351792 *  0.0000000    1.5077849 *  2.5533566 *  2.6226760 *
   3 C       2.4727506 *  1.5077849 *  0.0000000    1.5449009 *  2.4828578 *
   4 C       3.1418956    2.5533566 *  1.5449009 *  0.0000000    1.5199294 *
   5 C       2.7940623 *  2.6226760 *  2.4828578 *  1.5199294 *  0.0000000  
   6 C       3.2670913    3.5832218    3.5592127    2.5221972 *  1.3419416 *
   7 C       4.0003697    4.4105245    4.0652688    2.9532065 *  2.4594704 *
   8 C       4.2648062    4.4422992    3.6933567    2.6164149 *  2.8654201 *
   9 C       3.9069968    3.6558852    2.5409620 *  1.5259621 *  2.5257195 *
  10 O       4.7487745    4.3537616    3.0104859    2.3870769 *  3.6631965  
  11 H       1.0852060 *  2.1005130 *  3.4664392    4.1369625    3.5482786  
  12 H       1.0859565 *  2.1102679 *  2.6892602 *  3.0425366    2.7638909 *
  13 H       2.0835010 *  1.0851908 *  2.2642109 *  3.3339289    3.3026723  
  14 H       2.7102980 *  2.1180631 *  1.1129411 *  2.1786519 *  3.2261340  
  15 H       3.3730386    2.1550804 *  1.1128880 *  2.1804250 *  3.2338066  
  16 H       4.0791019    3.2653564    2.1792921 *  1.1118870 *  2.1293660 *
  17 H       2.8731756 *  2.5517827 *  2.8136148 *  2.2480289 *  1.0864867 *
  18 H       3.6576379    4.1406820    4.4149136    3.5021750    2.1006730 *
  19 H       4.7419290    5.3345759    5.1070753    4.0381238    3.4211369  
  20 H       5.1425382    5.3837767    4.5709073    3.5961947    3.9513332  

                6 C          7 C          8 C          9 C         10 O     

   1 C       3.2670913    4.0003697    4.2648062    3.9069968    4.7487745  
   2 C       3.5832218    4.4105245    4.4422992    3.6558852    4.3537616  
   3 C       3.5592127    4.0652688    3.6933567    2.5409620 *  3.0104859  
   4 C       2.5221972 *  2.9532065 *  2.6164149 *  1.5259621 *  2.3870769 *
   5 C       1.3419416 *  2.4594704 *  2.8654201 *  2.5257195 *  3.6631965  
   6 C       0.0000000    1.4745602 *  2.4467531 *  2.8483823 *  4.0683253  
   7 C       1.4745602 *  0.0000000    1.3358179 *  2.4453069 *  3.5286454  
   8 C       2.4467531 *  1.3358179 *  0.0000000    1.4771577 *  2.3227741 *
   9 C       2.8483823 *  2.4453069 *  1.4771577 *  0.0000000    1.2209834 *
  10 O       4.0683253    3.5286454    2.3227741 *  1.2209834 *  0.0000000  
  11 H       3.8851826    4.7368760    5.1869843    4.9536496    5.8287570  
  12 H       2.8848921 *  3.2555379    3.4766837    3.3825691    4.2415721  
  13 H       4.3558681    5.3539459    5.4539633    4.6033027    5.2546718  
  14 H       4.0393248    4.1962928    3.5935942    2.4992566 *  2.6811898 *
  15 H       4.4512211    5.0166413    4.5635602    3.2390468    3.4396887  
  16 H       3.2059468    3.6966663    3.3226058    2.1564092 *  2.7066229 *
  17 H       2.0886555 *  3.4364798    3.9505731    3.5239385    4.5861285  
  18 H       1.0855105 *  2.2137463 *  3.4074783    3.9333975    5.1527761  
  19 H       2.2178044 *  1.0854567 *  2.0977657 *  3.4354143    4.4159800  
  20 H       3.4350875    2.0965347 *  1.0861787 *  2.2260608 *  2.6029906 *

               11 H         12 H         13 H         14 H         15 H     

   1 C       1.0852060 *  1.0859565 *  2.0835010 *  2.7102980 *  3.3730386  
   2 C       2.1005130 *  2.1102679 *  1.0851908 *  2.1180631 *  2.1550804 *
   3 C       3.4664392    2.6892602 *  2.2642109 *  1.1129411 *  1.1128880 *
   4 C       4.1369625    3.0425366    3.3339289    2.1786519 *  2.1804250 *
   5 C       3.5482786    2.7638909 *  3.3026723    3.2261340    3.2338066  
   6 C       3.8851826    2.8848921 *  4.3558681    4.0393248    4.4512211  
   7 C       4.7368760    3.2555379    5.3539459    4.1962928    5.0166413  
   8 C       5.1869843    3.4766837    5.4539633    3.5935942    4.5635602  
   9 C       4.9536496    3.3825691    4.6033027    2.4992566 *  3.2390468  
  10 O       5.8287570    4.2415721    5.2546718    2.6811898 *  3.4396887  
  11 H       0.0000000    1.8706307 *  2.3959167 *  3.7379775    4.2507348  
  12 H       1.8706307 *  0.0000000    3.0604234    2.6338925 *  3.7535606  
  13 H       2.3959167 *  3.0604234    0.0000000    2.9782773 *  2.4464510 *
  14 H       3.7379775    2.6338925 *  2.9782773 *  0.0000000    1.8051602 *
  15 H       4.2507348    3.7535606    2.4464510 *  1.8051602 *  0.0000000  
  16 H       5.0137950    4.1154033    3.7983259    2.9313685 *  2.2768497 *
  17 H       3.3898632    3.2081367    2.8832624 *  3.7535621    3.3502297  
  18 H       3.9982733    3.3924162    4.7659230    4.9577973    5.2802537  
  19 H       5.3428730    3.9217076    6.2693838    5.1727210    6.0856478  
  20 H       6.0517673    4.2517819    6.4249546    4.2781360    5.4059809  

               16 H         17 H         18 H         19 H         20 H     

   1 C       4.0791019    2.8731756 *  3.6576379    4.7419290    5.1425382  
   2 C       3.2653564    2.5517827 *  4.1406820    5.3345759    5.3837767  
   3 C       2.1792921 *  2.8136148 *  4.4149136    5.1070753    4.5709073  
   4 C       1.1118870 *  2.2480289 *  3.5021750    4.0381238    3.5961947  
   5 C       2.1293660 *  1.0864867 *  2.1006730 *  3.4211369    3.9513332  
   6 C       3.2059468    2.0886555 *  1.0855105 *  2.2178044 *  3.4350875  
   7 C       3.6966663    3.4364798    2.2137463 *  1.0854567 *  2.0965347 *
   8 C       3.3226058    3.9505731    3.4074783    2.0977657 *  1.0861787 *
   9 C       2.1564092 *  3.5239385    3.9333975    3.4354143    2.2260608 *
  10 O       2.7066229 *  4.5861285    5.1527761    4.4159800    2.6029906 *
  11 H       5.0137950    3.3898632    3.9982733    5.3428730    6.0517673  
  12 H       4.1154033    3.2081367    3.3924162    3.9217076    4.2517819  
  13 H       3.7983259    2.8832624 *  4.7659230    6.2693838    6.4249546  
  14 H       2.9313685 *  3.7535621    4.9577973    5.1727210    4.2781360  
  15 H       2.2768497 *  3.3502297    5.2802537    6.0856478    5.4059809  
  16 H       0.0000000    2.5646838 *  4.0999503    4.7562996    4.2304331  
  17 H       2.5646838 *  0.0000000    2.3907915 *  4.3008280    5.0360023  
  18 H       4.0999503    2.3907915 *  0.0000000    2.5305218 *  4.3026006  
  19 H       4.7562996    4.3008280    2.5305218 *  0.0000000    2.4097902 *
  20 H       4.2304331    5.0360023    4.3026006    2.4097902 *  0.0000000  

  * ... LESS THAN  3.000


     ATOMIC BASIS SET
     ----------------
 THE CONTRACTED PRIMITIVE FUNCTIONS HAVE BEEN UNNORMALIZED
 THE CONTRACTED BASIS FUNCTIONS ARE NOW NORMALIZED TO UNITY

  SHELL TYPE  PRIMITIVE        EXPONENT          CONTRACTION COEFFICIENT(S)

 C         

      1   S       1            71.6168373    0.154328967295
      1   S       2            13.0450963    0.535328142282
      1   S       3             3.5305122    0.444634542185

      2   L       4             2.9412494   -0.099967229187    0.155916274999
      2   L       5             0.6834831    0.399512826089    0.607683718598
      2   L       6             0.2222899    0.700115468880    0.391957393099

 C         

      3   S       7            71.6168373    0.154328967295
      3   S       8            13.0450963    0.535328142282
      3   S       9             3.5305122    0.444634542185

      4   L      10             2.9412494   -0.099967229187    0.155916274999
      4   L      11             0.6834831    0.399512826089    0.607683718598
      4   L      12             0.2222899    0.700115468880    0.391957393099

 C         

      5   S      13            71.6168373    0.154328967295
      5   S      14            13.0450963    0.535328142282
      5   S      15             3.5305122    0.444634542185

      6   L      16             2.9412494   -0.099967229187    0.155916274999
      6   L      17             0.6834831    0.399512826089    0.607683718598
      6   L      18             0.2222899    0.700115468880    0.391957393099

 C         

      7   S      19            71.6168373    0.154328967295
      7   S      20            13.0450963    0.535328142282
      7   S      21             3.5305122    0.444634542185

      8   L      22             2.9412494   -0.099967229187    0.155916274999
      8   L      23             0.6834831    0.399512826089    0.607683718598
      8   L      24             0.2222899    0.700115468880    0.391957393099

 C         

      9   S      25            71.6168373    0.154328967295
      9   S      26            13.0450963    0.535328142282
      9   S      27             3.5305122    0.444634542185

     10   L      28             2.9412494   -0.099967229187    0.155916274999
     10   L      29             0.6834831    0.399512826089    0.607683718598
     10   L      30             0.2222899    0.700115468880    0.391957393099

 C         

     11   S      31            71.6168373    0.154328967295
     11   S      32            13.0450963    0.535328142282
     11   S      33             3.5305122    0.444634542185

     12   L      34             2.9412494   -0.099967229187    0.155916274999
     12   L      35             0.6834831    0.399512826089    0.607683718598
     12   L      36             0.2222899    0.700115468880    0.391957393099

 C         

     13   S      37            71.6168373    0.154328967295
     13   S      38            13.0450963    0.535328142282
     13   S      39             3.5305122    0.444634542185

     14   L      40             2.9412494   -0.099967229187    0.155916274999
     14   L      41             0.6834831    0.399512826089    0.607683718598
     14   L      42             0.2222899    0.700115468880    0.391957393099

 C         

     15   S      43            71.6168373    0.154328967295
     15   S      44            13.0450963    0.535328142282
     15   S      45             3.5305122    0.444634542185

     16   L      46             2.9412494   -0.099967229187    0.155916274999
     16   L      47             0.6834831    0.399512826089    0.607683718598
     16   L      48             0.2222899    0.700115468880    0.391957393099

 C         

     17   S      49            71.6168373    0.154328967295
     17   S      50            13.0450963    0.535328142282
     17   S      51             3.5305122    0.444634542185

     18   L      52             2.9412494   -0.099967229187    0.155916274999
     18   L      53             0.6834831    0.399512826089    0.607683718598
     18   L      54             0.2222899    0.700115468880    0.391957393099

 O         

     19   S      55           130.7093214    0.154328967295
     19   S      56            23.8088661    0.535328142282
     19   S      57             6.4436083    0.444634542185

     20   L      58             5.0331513   -0.099967229187    0.155916274999
     20   L      59             1.1695961    0.399512826089    0.607683718598
     20   L      60             0.3803890    0.700115468880    0.391957393099

 H         

     21   S      61             3.4252509    0.154328967295
     21   S      62             0.6239137    0.535328142282
     21   S      63             0.1688554    0.444634542185

 H         

     22   S      64             3.4252509    0.154328967295
     22   S      65             0.6239137    0.535328142282
     22   S      66             0.1688554    0.444634542185

 H         

     23   S      67             3.4252509    0.154328967295
     23   S      68             0.6239137    0.535328142282
     23   S      69             0.1688554    0.444634542185

 H         

     24   S      70             3.4252509    0.154328967295
     24   S      71             0.6239137    0.535328142282
     24   S      72             0.1688554    0.444634542185

 H         

     25   S      73             3.4252509    0.154328967295
     25   S      74             0.6239137    0.535328142282
     25   S      75             0.1688554    0.444634542185

 H         

     26   S      76             3.4252509    0.154328967295
     26   S      77             0.6239137    0.535328142282
     26   S      78             0.1688554    0.444634542185

 H         

     27   S      79             3.4252509    0.154328967295
     27   S      80             0.6239137    0.535328142282
     27   S      81             0.1688554    0.444634542185

 H         

     28   S      82             3.4252509    0.154328967295
     28   S      83             0.6239137    0.535328142282
     28   S      84             0.1688554    0.444634542185

 H         

     29   S      85             3.4252509    0.154328967295
     29   S      86             0.6239137    0.535328142282
     29   S      87             0.1688554    0.444634542185

 H         

     30   S      88             3.4252509    0.154328967295
     30   S      89             0.6239137    0.535328142282
     30   S      90             0.1688554    0.444634542185

 TOTAL NUMBER OF BASIS SET SHELLS             =   30
 NUMBER OF CARTESIAN GAUSSIAN BASIS FUNCTIONS =   60
 NUMBER OF ELECTRONS                          =   72
 CHARGE OF MOLECULE                           =    0
 SPIN MULTIPLICITY                            =    1
 NUMBER OF OCCUPIED ORBITALS (ALPHA)          =   36
 NUMBER OF OCCUPIED ORBITALS (BETA )          =   36
 TOTAL NUMBER OF ATOMS                        =   20
 THE NUCLEAR REPULSION ENERGY IS      498.8019496081

     $CONTRL OPTIONS
     ---------------
 SCFTYP=RHF          RUNTYP=OPTIMIZE     EXETYP=RUN     
 MPLEVL=       0     CITYP =NONE         CCTYP =NONE         VBTYP =NONE    
 DFTTYP=NONE         TDDFT =NONE    
 MULT  =       1     ICHARG=       0     NZVAR =       1     COORD =UNIQUE  
 PP    =NONE         RELWFN=NONE         LOCAL =NONE         NUMGRD=       F
 ISPHER=      -1     NOSYM =       0     MAXIT =      30     UNITS =ANGS    
 PLTORB=       F     MOLPLT=       F     AIMPAC=       F     FRIEND=        
 NPRINT=       7     IREST =       0     GEOM  =INPUT   
 NORMF =       0     NORMP =       0     ITOL  =      20     ICUT  =       9
 INTTYP=BEST         GRDTYP=BEST         QMTTOL= 1.0E-06

     $SYSTEM OPTIONS
     ---------------
  REPLICATED MEMORY=     1000000 WORDS (ON EVERY NODE).
 DISTRIBUTED MEMDDI=           0 MILLION WORDS IN AGGREGATE,
 MEMDDI DISTRIBUTED OVER   1 PROCESSORS IS           0 WORDS/PROCESSOR.
 TOTAL MEMORY REQUESTED ON EACH PROCESSOR=     1000000 WORDS.
 TIMLIM=      525600.00 MINUTES, OR     365.0 DAYS.
 PARALL= F  BALTYP=  DLB     KDIAG=    0  COREFL= F
 MXSEQ2=     300 MXSEQ3=     150  mem10=         0

          ----------------
          PROPERTIES INPUT
          ----------------

     MOMENTS            FIELD           POTENTIAL          DENSITY
 IEMOM =       1   IEFLD =       0   IEPOT =       0   IEDEN =       0
 WHERE =COMASS     WHERE =NUCLEI     WHERE =NUCLEI     WHERE =NUCLEI  
 OUTPUT=BOTH       OUTPUT=BOTH       OUTPUT=BOTH       OUTPUT=BOTH    
 IEMINT=       0   IEFINT=       0                     IEDINT=       0
                                                       MORB  =       0
          EXTRAPOLATION IN EFFECT
          SOSCF IN EFFECT
 ORBITAL PRINTING OPTION: NPREO=     1    60     2     1

     -------------------------------
     INTEGRAL TRANSFORMATION OPTIONS
     -------------------------------
     NWORD  =            0
     CUTOFF = 1.0E-09     MPTRAN =       0
     DIRTRF =       F     AOINTS =DUP     

          ----------------------
          INTEGRAL INPUT OPTIONS
          ----------------------
 NOPK  =       1 NORDER=       0 SCHWRZ=       T


 -----------------------------------------------
  STATISTICS ON AUTOMATIC COORDINATE GENERATION 
 -----------------------------------------------
  NUMBER OF USER SPECIFIED BONDS                             2
  NUMBER OF BONDS                                           22
  NUMBER OF ANGLES                                          45
  NUMBER OF TORSIONS                                        62
  NUMBER OF EXTRA COORD.                                     0
  NUMBER OF EXTRA COORD. FOR CONSTRAINTS                     0
  NUMBER OF CONSTRAINED COORD.                               2

  TOTAL NUMBER OF PRIMITIVES                               129
 -----------------------------------------------

   --- ENCODED Z MATRIX ---
 COORD  TYPE   I   J   K   L   M   N
    1      1    1   6
    2      1    3   4
    3      1    1   2
    4      1    1  12
    5      1    1  11
    6      1    2  13
    7      1    2   3
    8      1    3  14
    9      1    3   4
   10      1    3  15
   11      1    4   5
   12      1    4   9
   13      1    4  16
   14      1    5   6
   15      1    5  17
   16      1    6   7
   17      1    6  18
   18      1    7   8
   19      1    7  19
   20      1    8  20
   21      1    8   9
   22      1    9  10
   23      2    1   6   7
   24      2    1   6   5
   25      2    1   2  13
   26      2    1   2   3
   27      2    1   6  18
   28      2    2   1   6
   29      2    2   3   4
   30      2    2   3   4
   31      2    2   3  14
   32      2    2   1  12
   33      2    2   3  15
   34      2    2   1  11
   35      2    3   4   9
   36      2    3   4   5
   37      2    3   2  13
   38      2    3   4   9
   39      2    3   4   5
   40      2    3   4  16
   41      2    3   4  16
   42      2    4   5   6
   43      2    4   3  15
   44      2    4   3  14
   45      2    4   3  14
   46      2    4   9  10
   47      2    4   9   8
   48      2    4   3  15
   49      2    4   5  17
   50      2    5   4  16
   51      2    5   4   9
   52      2    5   6  18
   53      2    5   6   7
   54      2    6   1  11
   55      2    6   1  12
   56      2    6   7  19
   57      2    6   7   8
   58      2    6   5  17
   59      2    7   8   9
   60      2    7   8  20
   61      2    7   6  18
   62      2    8   9  10
   63      2    8   7  19
   64      2    9   8  20
   65      2    9   4  16
   66      2   11   1  12
   67      2   14   3  15
   68      3    1   6   5  17
   69      3    1   2   3  15
   70      3    1   6   7  19
   71      3    1   2   3   4
   72      3    1   6   5   4
   73      3    1   6   7   8
   74      3    1   2   3  14
   75      3    2   3   4   5
   76      3    2   1   6   5
   77      3    2   1   6  18
   78      3    2   1   6   7
   79      3    2   3   4  16
   80      3    2   3   4   9
   81      3    3   2   1  12
   82      3    3   2   1   6
   83      3    3   4   5  17
   84      3    3   4   5   6
   85      3    3   4   9  10
   86      3    3   4   9   8
   87      3    3   2   1  11
   88      3    4   3   2  13
   89      3    4   9   8  20
   90      3    4   9   8   7
   91      3    4   5   6  18
   92      3    4   5   6   7
   93      3    5   6   7  19
   94      3    5   6   7   8
   95      3    5   6   1  12
   96      3    5   4   3  15
   97      3    5   4   3  14
   98      3    5   4   9   8
   99      3    5   4   9  10
  100      3    5   6   1  11
  101      3    6   1   2  13
  102      3    6   5   4  16
  103      3    6   5   4   9
  104      3    6   7   8   9
  105      3    6   7   8  20
  106      3    7   6   5  17
  107      3    7   6   1  11
  108      3    7   8   9  10
  109      3    7   6   1  12
  110      3    8   9   4  16
  111      3    8   7   6  18
  112      3    9   4   5  17
  113      3    9   4   3  15
  114      3    9   4   3  14
  115      3    9   8   7  19
  116      3   10   9   4  16
  117      3   10   9   8  20
  118      3   11   1   2  13
  119      3   11   1   6  18
  120      3   12   1   2  13
  121      3   12   1   6  18
  122      3   13   2   3  15
  123      3   13   2   3  14
  124      3   14   3   4  16
  125      3   15   3   4  16
  126      3   16   4   5  17
  127      3   17   5   6  18
  128      3   18   6   7  19
  129      3   19   7   8  20

          INDEP./SYM. INTERNAL COORDINATES
          --------------------------------
 CRD  1=   1.0000 (  1)
 CRD  2=   1.0000 (  2)
 CRD  3=   0.1459 (  5)  0.2437 (  7) -0.1921 ( 11) -0.2473 ( 12)  0.2053 ( 16)
           0.2046 ( 18) -0.1252 ( 21)  0.1120 ( 24)  0.1720 ( 26) -0.1845 ( 27)
          -0.1697 ( 28) -0.1142 ( 37)  0.1083 ( 40)  0.1083 ( 41) -0.1288 ( 46)
          -0.1058 ( 49)  0.1744 ( 51)  0.1120 ( 54)  0.1183 ( 58)  0.1652 ( 60)
           0.1676 ( 61)  0.1425 ( 62) -0.1319 ( 64) -0.1403 ( 68)  0.1211 ( 70)
          -0.1547 ( 72)  0.1649 ( 73)  0.1575 ( 78)  0.1301 ( 80)  0.1190 (107)
           0.1842 (109)  0.1067 (113)
 CRD  4=   0.1532 (  3)  0.2131 (  7)  0.1394 ( 10)  0.2433 ( 11)  0.3408 ( 14)
           0.2097 ( 21)  0.1534 ( 26) -0.1893 ( 29) -0.1893 ( 30)  0.1272 ( 31)
           0.1007 ( 36)  0.1007 ( 39)  0.1306 ( 42)  0.1039 ( 43)  0.1039 ( 48)
          -0.1522 ( 51) -0.2157 ( 54) -0.1039 ( 55) -0.1145 ( 57)  0.1793 ( 59)
          -0.1204 ( 60) -0.1040 ( 67)  0.1031 ( 78) -0.1588 ( 87)  0.1183 ( 93)
           0.1343 ( 94)  0.1082 ( 98) -0.1172 (118)  0.1106 (120)
 CRD  5=  -0.2374 (  7) -0.2200 ( 12) -0.1722 ( 14) -0.1199 ( 15) -0.2063 ( 16)
           0.1970 ( 18)  0.3258 ( 21)  0.1076 ( 26) -0.1673 ( 37)  0.1157 ( 42)
          -0.3460 ( 46)  0.1659 ( 55) -0.2037 ( 56) -0.1081 ( 58)  0.4000 ( 62)
           0.2587 ( 63)  0.1036 ( 64)  0.1103 (101)
 CRD  6=  -0.1829 (  7) -0.2671 ( 12) -0.1003 ( 13)  0.1188 ( 14) -0.2104 ( 16)
          -0.1604 ( 18) -0.1150 ( 19) -0.2083 ( 20) -0.3509 ( 21)  0.1614 ( 25)
           0.1193 ( 34) -0.1547 ( 37)  0.1279 ( 44)  0.1279 ( 45)  0.1100 ( 46)
          -0.1045 ( 49) -0.1843 ( 54)  0.1461 ( 55)  0.1764 ( 58)  0.1301 ( 59)
          -0.1773 ( 64) -0.1753 ( 71)  0.1803 ( 82)  0.1160 ( 83)  0.1085 ( 84)
          -0.1680 ( 88)  0.1750 (101)
 CRD  7=  -0.1609 (  3) -0.1143 (  5) -0.2648 ( 11)  0.3781 ( 14)  0.2178 ( 16)
           0.1269 ( 19)  0.1078 ( 20)  0.1831 ( 21)  0.1438 ( 37) -0.2536 ( 46)
           0.1433 ( 47) -0.3885 ( 49)  0.1068 ( 56)  0.4284 ( 58)  0.1104 ( 62)
           0.1280 ( 64)
 CRD  8=   0.3787 (  3)  0.1420 (  5)  0.1398 ( 10)  0.2183 ( 16) -0.1509 ( 18)
           0.1635 ( 19) -0.1471 ( 22) -0.1092 ( 29) -0.1092 ( 30)  0.1056 ( 32)
           0.1530 ( 33) -0.1335 ( 37)  0.1050 ( 47) -0.1012 ( 51)  0.1042 ( 54)
           0.2010 ( 55)  0.3066 ( 56) -0.1661 ( 57) -0.1406 ( 63)  0.1039 ( 65)
          -0.1636 ( 80) -0.1141 ( 81) -0.1029 ( 86) -0.1066 ( 91) -0.1225 ( 93)
          -0.1152 ( 94) -0.1298 (114)  0.1049 (118) -0.1014 (120)
 CRD  9=  -0.1426 (  7)  0.1143 ( 12)  0.1739 ( 16)  0.1294 ( 17)  0.4816 ( 18)
           0.1903 ( 19)  0.1675 ( 46) -0.1639 ( 56) -0.1131 ( 57)  0.4046 ( 60)
          -0.2180 ( 62)  0.2770 ( 63) -0.4095 ( 64)
 CRD 10=  -0.2986 (  3)  0.1915 (  7) -0.1128 ( 11) -0.3068 ( 12) -0.2182 ( 15)
          -0.2207 ( 16) -0.2131 ( 20) -0.1443 ( 21) -0.1454 ( 22) -0.3620 ( 25)
          -0.1399 ( 34)  0.3714 ( 37)  0.1034 ( 42) -0.1162 ( 51) -0.1707 ( 57)
           0.1348 ( 59)  0.1483 ( 63) -0.1734 ( 64)
 CRD 11=  -0.1562 (  3) -0.1611 (  6) -0.3713 (  7) -0.1611 ( 15) -0.1846 ( 20)
           0.1318 ( 22)  0.1213 ( 26)  0.1122 ( 29)  0.1122 ( 30) -0.2096 ( 33)
          -0.1984 ( 37)  0.1805 ( 42)  0.1261 ( 43)  0.1735 ( 46) -0.1822 ( 47)
           0.1261 ( 48) -0.1251 ( 49)  0.1192 ( 54)  0.2408 ( 56) -0.1254 ( 57)
           0.2407 ( 59) -0.1997 ( 60)  0.1059 ( 61) -0.1155 ( 63)  0.1242 ( 86)
          -0.1426 (113)
 CRD 12=  -0.1108 (  3) -0.1323 (  6) -0.1274 (  7) -0.3900 ( 11)  0.1288 ( 12)
          -0.1545 ( 14) -0.2686 ( 17) -0.1144 ( 18) -0.1815 ( 22)  0.1141 ( 26)
           0.1489 ( 31)  0.1064 ( 36) -0.1107 ( 37)  0.1064 ( 39)  0.1307 ( 47)
          -0.1196 ( 50) -0.1006 ( 51) -0.1327 ( 52)  0.1054 ( 53) -0.1587 ( 59)
           0.1066 ( 60) -0.2214 ( 62)  0.1800 ( 65) -0.1022 ( 72)  0.1489 ( 79)
          -0.1322 ( 87) -0.1074 ( 90) -0.1280 ( 92) -0.1032 (106) -0.1200 (113)
          -0.1218 (114)
 CRD 13=   0.3458 (  3)  0.1225 (  5)  0.1898 (  6) -0.1042 ( 11) -0.1249 ( 15)
          -0.2443 ( 16) -0.1198 ( 17) -0.1379 ( 22)  0.2874 ( 25) -0.1103 ( 26)
           0.1118 ( 29)  0.1118 ( 30) -0.1199 ( 31) -0.1063 ( 33) -0.1769 ( 37)
           0.1149 ( 52) -0.2050 ( 56) -0.1508 ( 61)  0.2131 ( 63)  0.1123 ( 73)
          -0.1149 ( 82)  0.1123 ( 85)  0.1031 ( 86)  0.1208 ( 97) -0.1087 (100)
          -0.1275 (101) -0.1028 (103) -0.1588 (107) -0.1011 (112)  0.1075 (121)
 CRD 14=   0.1321 (  6) -0.1186 (  8) -0.1150 ( 15) -0.1538 ( 16) -0.1508 ( 20)
           0.2292 ( 22)  0.1890 ( 31) -0.2173 ( 44) -0.2173 ( 45)  0.1441 ( 46)
          -0.1866 ( 47) -0.2233 ( 49)  0.1264 ( 52) -0.1780 ( 55)  0.1855 ( 58)
           0.1414 ( 59) -0.1013 ( 68)  0.1613 ( 69)  0.1042 ( 71) -0.1106 ( 72)
          -0.1105 ( 73) -0.1227 ( 85) -0.1330 ( 86) -0.1465 ( 98) -0.1362 ( 99)
           0.1168 (103)  0.1073 (112)  0.1398 (122)
 CRD 15=   0.1693 (  3)  0.2124 (  4) -0.1176 (  5)  0.1728 (  6) -0.1281 (  8)
           0.1116 ( 10) -0.1732 ( 13) -0.1960 ( 14) -0.2285 ( 15)  0.1179 ( 16)
          -0.1763 ( 27) -0.1008 ( 31)  0.1088 ( 42) -0.1417 ( 52) -0.2008 ( 55)
           0.1170 ( 56) -0.1337 ( 58)  0.2278 ( 61) -0.1194 ( 63)  0.1100 ( 69)
           0.1369 ( 71)  0.1381 ( 74) -0.1242 ( 76) -0.1866 ( 77)  0.1962 ( 81)
           0.1113 ( 83)  0.1133 ( 84) -0.1255 ( 87)  0.1044 ( 91)  0.1075 (102)
          -0.1347 (119)  0.2341 (120)  0.1054 (126)  0.1066 (127)
 CRD 16=   0.1931 (  8) -0.2981 ( 13) -0.1020 ( 15)  0.3109 ( 17) -0.2052 ( 19)
          -0.1111 ( 23)  0.1969 ( 27)  0.1186 ( 36)  0.1186 ( 39)  0.1266 ( 43)
           0.1266 ( 48) -0.1715 ( 49) -0.2183 ( 50)  0.1469 ( 52) -0.1418 ( 53)
           0.1404 ( 57)  0.1129 ( 58)  0.1243 ( 68)  0.1358 ( 74) -0.1210 ( 96)
          -0.1226 ( 97)  0.1146 ( 98)  0.1728 ( 99) -0.1520 (108) -0.1413 (110)
           0.1271 (111) -0.1303 (112)  0.1131 (123)
 CRD 17=   0.1067 (  4) -0.1035 (  5)  0.2921 (  6)  0.1442 (  8) -0.1126 ( 10)
          -0.1744 ( 13)  0.1989 ( 15) -0.3112 ( 17)  0.3360 ( 19) -0.2036 ( 20)
           0.2473 ( 22) -0.1090 ( 26) -0.1190 ( 47) -0.1348 ( 50) -0.1081 ( 52)
           0.1364 ( 53) -0.1625 ( 57)  0.1325 ( 59) -0.1167 ( 77) -0.1519 ( 78)
           0.1141 ( 79)  0.1290 ( 80) -0.1035 ( 87)  0.1110 ( 99) -0.1234 (108)
          -0.1070 (109)
 CRD 18=   0.1010 (  4) -0.1488 (  5)  0.3934 (  6)  0.1247 (  8) -0.2113 ( 10)
           0.2501 ( 13) -0.2889 ( 15)  0.2093 ( 17)  0.1006 ( 20) -0.1206 ( 26)
           0.1705 ( 31)  0.1120 ( 32) -0.1181 ( 33)  0.1105 ( 42) -0.1077 ( 44)
          -0.1077 ( 45) -0.1077 ( 54)  0.2110 ( 55) -0.1196 ( 71) -0.1289 ( 74)
           0.1555 ( 75) -0.1217 ( 76) -0.1030 ( 77)  0.1244 ( 79) -0.1708 ( 81)
          -0.1331 ( 88) -0.1575 (120) -0.1424 (123)
 CRD 19=   0.1229 (  4) -0.2149 ( 10) -0.1216 ( 13)  0.1084 ( 27)  0.2207 ( 33)
          -0.1070 ( 34) -0.1650 ( 40) -0.1650 ( 41) -0.2660 ( 43) -0.2660 ( 48)
           0.1321 ( 54)  0.1736 ( 69)  0.1088 ( 86)  0.1377 ( 87) -0.1044 ( 89)
          -0.1069 ( 90) -0.1159 ( 91)  0.1083 ( 93)  0.1313 ( 94)  0.1154 ( 96)
           0.1338 ( 98)  0.1091 ( 99) -0.1499 (102) -0.1041 (106)  0.2368 (110)
           0.1547 (111)  0.1139 (113)  0.2121 (116)  0.1415 (118)  0.1697 (122)
           0.1281 (125) -0.1380 (126) -0.1278 (127)  0.1317 (128)
 CRD 20=  -0.1381 (  4)  0.1055 (  5)  0.3732 (  8) -0.1465 ( 10)  0.4854 ( 13)
          -0.1410 ( 15) -0.1548 ( 31)  0.2412 ( 44)  0.2412 ( 45) -0.1235 ( 55)
           0.1865 ( 74)  0.1120 ( 81)  0.1348 (104)  0.1359 (105)  0.1033 (115)
           0.1285 (120)  0.1697 (123)  0.1030 (124)  0.1044 (129)
 CRD 21=   0.4199 (  4)  0.1334 (  6)  0.1402 ( 10)  0.1250 ( 13)  0.1622 ( 15)
          -0.1533 ( 19) -0.1005 ( 33) -0.1723 ( 34)  0.1350 ( 43)  0.1350 ( 48)
           0.1889 ( 54) -0.1194 ( 69) -0.1215 ( 72)  0.1026 ( 83)  0.1284 ( 84)
           0.1792 ( 87) -0.1190 ( 90) -0.1332 ( 91) -0.1259 ( 92)  0.1242 ( 95)
           0.1363 (100)  0.1723 (102)  0.1315 (103)  0.1364 (104)  0.1172 (105)
          -0.1002 (106)  0.1555 (107) -0.1221 (108)  0.1434 (109)  0.1057 (112)
           0.1395 (115) -0.1029 (117)  0.1299 (118)  0.1206 (119)  0.1085 (121)
           0.1465 (126) -0.1074 (127)  0.1203 (129)
 CRD 22=   0.3597 (  4)  0.1245 (  5)  0.4705 (  8) -0.1040 ( 10)  0.1502 ( 15)
           0.1455 ( 54) -0.1164 ( 55)  0.1055 ( 66)  0.1742 ( 81)  0.1642 ( 87)
           0.1531 ( 89)  0.1611 ( 90)  0.1117 ( 91)  0.1014 ( 92) -0.1087 ( 96)
          -0.1080 ( 97) -0.1129 (102) -0.1428 (104) -0.1348 (105)  0.1667 (108)
          -0.1008 (113) -0.1000 (114) -0.1332 (115)  0.1587 (117)  0.1505 (118)
           0.1605 (120) -0.1251 (129)
 CRD 23=   0.1039 (  4) -0.3692 (  5)  0.2641 ( 10) -0.1334 ( 11)  0.1132 ( 12)
           0.1966 ( 13) -0.1621 ( 19)  0.2076 ( 22) -0.1338 ( 31)  0.1399 ( 32)
           0.1400 ( 33) -0.1312 ( 81) -0.1085 ( 87)  0.1420 ( 89)  0.1081 ( 90)
           0.1602 ( 95)  0.1422 ( 96)  0.1614 ( 97)  0.1176 (100) -0.1058 (105)
           0.1198 (107)  0.1623 (109) -0.1378 (110)  0.1411 (113)  0.1603 (114)
          -0.1063 (116)  0.1113 (117)  0.1027 (119) -0.1164 (120)  0.1453 (121)
           0.1963 (124)  0.1771 (125)
 CRD 24=  -0.4153 (  8) -0.6599 ( 10)  0.1120 ( 13)  0.1510 ( 15) -0.2121 ( 67)
           0.2106 ( 74) -0.1467 ( 97) -0.1429 (114)  0.1800 (123) -0.1336 (124)
 CRD 25=   0.4633 (  4)  0.6049 (  5) -0.1925 (  8) -0.1530 ( 15)  0.1240 ( 22)
          -0.1243 ( 32)  0.1616 ( 66) -0.1100 ( 81) -0.1668 ( 95)  0.1039 ( 96)
          -0.1737 (109)  0.1083 (113) -0.1019 (120) -0.1694 (121)  0.1007 (124)
           0.1229 (125)
 CRD 26=  -0.1418 (  4) -0.2153 (  8) -0.1846 ( 15)  0.1349 ( 22) -0.1118 ( 29)
          -0.1118 ( 30)  0.1423 ( 43)  0.1423 ( 48)  0.1866 ( 54) -0.2256 ( 67)
          -0.3111 ( 69) -0.1565 ( 71) -0.1007 ( 74)  0.2278 ( 81)  0.1240 ( 82)
           0.3284 ( 87)  0.1699 ( 96) -0.1017 (100) -0.1044 (107)  0.1714 (113)
           0.2536 (118)  0.1529 (120) -0.2343 (122)  0.2047 (125)
 CRD 27=  -0.3337 ( 13)  0.1028 ( 14) -0.1781 ( 27) -0.1074 ( 73) -0.1041 ( 83)
          -0.1154 ( 84) -0.1924 ( 89)  0.2341 ( 91)  0.1695 ( 92) -0.1764 ( 93)
          -0.2050 ( 94) -0.1196 (102)  0.1548 (104)  0.2676 (105)  0.1583 (106)
          -0.2691 (111)  0.1262 (115) -0.1758 (117) -0.1084 (126)  0.2229 (127)
          -0.2406 (128)  0.2389 (129)
 CRD 28=  -0.1183 (  5) -0.1182 ( 11)  0.3855 ( 17)  0.4165 ( 19) -0.3127 ( 22)
           0.1836 ( 46)  0.1293 ( 49) -0.1907 ( 56) -0.3037 ( 60) -0.1932 ( 62)
           0.2031 ( 63)  0.3195 ( 64)
 CRD 29=  -0.2405 ( 12) -0.1991 ( 15) -0.1764 ( 16) -0.3057 ( 17)  0.1340 ( 18)
           0.1636 ( 19)  0.6393 ( 20)  0.2149 ( 46)  0.2019 ( 56) -0.1697 ( 62)
          -0.1801 ( 63) -0.1048 ( 65)  0.1119 (102)
 CRD 30=   0.1133 (  5)  0.1548 (  6)  0.1150 ( 11) -0.2383 ( 13) -0.1212 ( 17)
           0.1289 ( 18)  0.1090 ( 19) -0.2138 ( 22) -0.1071 ( 31)  0.1360 ( 44)
           0.1360 ( 45) -0.1008 ( 49) -0.1443 ( 60)  0.1231 ( 64) -0.1271 ( 68)
           0.1884 ( 70)  0.1414 ( 74) -0.1364 ( 81)  0.1040 ( 83) -0.1988 ( 85)
          -0.1933 ( 89)  0.2090 ( 93) -0.2268 ( 99)  0.1914 (105) -0.1562 (106)
           0.2232 (108)  0.1501 (112) -0.2026 (115) -0.1764 (116) -0.1554 (120)
           0.1606 (123)  0.1245 (128)
 CRD 31=   0.1811 (  3) -0.1151 (  4)  0.1598 (  5) -0.1744 (  7)  0.1028 (  8)
          -0.1564 ( 10) -0.2545 ( 11) -0.1182 ( 12) -0.2201 ( 13)  0.2451 ( 14)
           0.2835 ( 17) -0.2038 ( 18) -0.1563 ( 19)  0.1090 ( 20)  0.1808 ( 21)
           0.2773 ( 22) -0.1833 ( 25)  0.1705 ( 37)  0.2196 ( 49) -0.1954 ( 58)
          -0.1217 (116)  0.1161 (126)
 CRD 32=   0.2539 (  4) -0.2457 (  5) -0.4019 (  6)  0.1818 (  7)  0.1551 (  8)
           0.1752 ( 12) -0.1159 ( 13) -0.4122 ( 15)  0.1197 ( 16)  0.1895 ( 19)
          -0.1390 ( 20)  0.1545 ( 22)  0.1101 ( 25) -0.1269 ( 46)  0.1183 ( 49)
           0.1036 ( 52)  0.1088 ( 60) -0.1271 ( 61)  0.1015 ( 70)  0.1015 ( 77)
           0.1137 (121) -0.1348 (124)
 CRD 33=   0.3266 (  3)  0.1064 (  5) -0.1386 (  6) -0.2671 (  7)  0.1055 (  8)
          -0.1813 ( 10)  0.1175 ( 11)  0.2088 ( 12) -0.1826 ( 15) -0.2267 ( 17)
           0.1902 ( 18) -0.1645 ( 20) -0.1333 ( 21) -0.1890 ( 22) -0.2975 ( 25)
           0.1017 ( 34)  0.3231 ( 37) -0.1578 ( 66) -0.1071 ( 70)  0.1074 ( 95)
           0.1369 (109)  0.1153 (114)  0.1182 (121)  0.1120 (124)
 CRD 34=   0.2068 (  6) -0.1159 (  8) -0.1521 ( 11)  0.1929 ( 12)  0.1173 ( 14)
          -0.2673 ( 16)  0.1006 ( 17)  0.2453 ( 19)  0.1332 ( 20) -0.1601 ( 21)
          -0.2163 ( 22) -0.1659 ( 46)  0.2242 ( 49) -0.1079 ( 50)  0.1446 ( 52)
           0.2161 ( 56) -0.2134 ( 58)  0.1381 ( 60) -0.1332 ( 61)  0.2559 ( 62)
          -0.2649 ( 63) -0.1682 ( 64)  0.1178 ( 65)  0.1236 ( 77)  0.1102 ( 79)
          -0.1025 ( 96)  0.1380 (119)  0.1126 (121)  0.1338 (124) -0.1049 (126)
 CRD 35=   0.1178 (  3) -0.1051 (  6)  0.1678 ( 13) -0.2765 ( 14)  0.2753 ( 15)
          -0.1649 ( 16)  0.2260 ( 17) -0.2100 ( 18)  0.3934 ( 19)  0.2357 ( 20)
          -0.3004 ( 21)  0.3551 ( 22)  0.1357 ( 37) -0.1121 ( 40) -0.1121 ( 41)
          -0.1371 ( 49)  0.1065 ( 58)
 CRD 36=  -0.1362 (  3)  0.4686 (  6) -0.1212 (  7) -0.2967 ( 15)  0.1463 ( 16)
           0.1265 ( 19)  0.2681 ( 22)  0.1618 ( 26)  0.1049 ( 44)  0.1049 ( 45)
           0.1286 ( 47) -0.1095 ( 56) -0.1063 ( 59) -0.1015 ( 62)  0.1263 ( 64)
           0.1310 ( 76)  0.1339 ( 77)  0.1283 ( 78) -0.1390 ( 79)  0.1436 (100)
           0.1408 (107)  0.1464 (119) -0.1086 (124) -0.1554 (125)
 CRD 37=  -0.1185 (  5)  0.1823 (  7)  0.1138 (  8)  0.1507 ( 11) -0.2308 ( 13)
          -0.1099 ( 14) -0.2673 ( 18)  0.1645 ( 21) -0.1131 ( 22) -0.1141 ( 31)
           0.1147 ( 60) -0.1645 ( 64)  0.1281 ( 65) -0.1009 ( 68) -0.1083 ( 69)
          -0.1312 ( 70)  0.1144 ( 88)  0.2434 ( 89) -0.1462 ( 93)  0.1112 ( 97)
          -0.1473 (101) -0.2115 (105) -0.1072 (106)  0.1297 (112)  0.1795 (115)
           0.1022 (116)  0.2100 (117) -0.1001 (118) -0.1748 (120)  0.1480 (123)
           0.1235 (124) -0.1052 (127) -0.1480 (128)
 CRD 38=   0.1530 (  4) -0.1670 (  8)  0.1724 ( 11) -0.2052 ( 12) -0.2686 ( 14)
           0.1997 ( 16) -0.1635 ( 18)  0.3033 ( 21) -0.1063 ( 25)  0.1314 ( 27)
          -0.1134 ( 33)  0.1034 ( 34)  0.1092 ( 46)  0.1287 ( 52) -0.1126 ( 54)
           0.1127 ( 60) -0.1486 ( 61)  0.1106 ( 77)  0.1032 ( 79)  0.1316 ( 81)
          -0.1391 ( 87) -0.1737 ( 88)  0.1313 (101)  0.1037 (105)  0.1005 (111)
           0.2678 (120)  0.1278 (121) -0.1133 (122) -0.1231 (123)  0.1050 (124)
          -0.1169 (126)  0.1055 (128)
 CRD 39=  -0.1189 (  6)  0.1860 (  7) -0.1046 ( 11)  0.2872 ( 18) -0.2336 ( 19)
          -0.3451 ( 21)  0.1809 ( 22) -0.1124 ( 33) -0.1540 ( 57) -0.2524 ( 60)
           0.1015 ( 63)  0.1918 ( 64)  0.1064 ( 65) -0.1087 ( 87) -0.1596 ( 91)
          -0.1289 ( 93) -0.1132 ( 99) -0.1388 (102)  0.1001 (110)  0.1307 (111)
           0.1294 (115)  0.1366 (117)  0.1014 (120) -0.1270 (122) -0.1385 (126)
          -0.1598 (127)
 CRD 40=  -0.1224 ( 12) -0.1108 ( 14)  0.1999 ( 15) -0.2269 ( 16)  0.3212 ( 18)
           0.1082 ( 19) -0.4089 ( 20)  0.2175 ( 21)  0.1229 ( 22)  0.1033 ( 42)
           0.1545 ( 47)  0.1711 ( 56)  0.1450 ( 57) -0.3290 ( 59)  0.1724 ( 60)
          -0.2250 ( 62) -0.3164 ( 63)  0.1564 ( 64)  0.1031 ( 96)
 CRD 41=  -0.1194 (  4) -0.1029 (  7)  0.1703 (  8) -0.1212 ( 10)  0.3098 ( 12)
          -0.1610 ( 13) -0.1344 ( 16)  0.1438 ( 33) -0.1444 ( 49)  0.1317 ( 50)
          -0.1118 ( 52)  0.1202 ( 58)  0.1051 ( 62) -0.1272 ( 65) -0.1183 ( 77)
          -0.1931 ( 79) -0.1488 ( 87) -0.1345 ( 91)  0.1937 ( 96)  0.1090 ( 97)
          -0.1267 ( 99)  0.1842 (100)  0.1013 (102)  0.1161 (107)  0.1276 (108)
           0.1440 (111)  0.1859 (120) -0.1733 (122) -0.1741 (123) -0.1008 (124)
          -0.1096 (127)  0.1371 (129)
 CRD 42=  -0.1003 (  3)  0.1028 (  4) -0.2149 (  7)  0.1254 (  8)  0.2085 ( 10)
          -0.2073 ( 11)  0.1081 ( 13)  0.1255 ( 17) -0.1103 ( 19) -0.1605 ( 22)
           0.1015 ( 31)  0.1218 ( 34)  0.1306 ( 46) -0.1449 ( 47)  0.1203 ( 50)
           0.1357 ( 51)  0.1063 ( 53) -0.1164 ( 57) -0.1062 ( 61) -0.1044 ( 65)
          -0.1444 ( 66) -0.2625 ( 67) -0.1417 ( 69)  0.1021 ( 74)  0.1501 ( 80)
           0.1006 ( 96) -0.1682 ( 97) -0.1143 (101) -0.1484 (107)  0.1632 (110)
           0.2327 (113)  0.1479 (116) -0.1499 (118)  0.2075 (123) -0.2378 (124)
 CRD 43=   0.1030 (  3) -0.2035 (  5)  0.1047 ( 23) -0.1038 ( 25) -0.2085 ( 32)
           0.1169 ( 35)  0.1169 ( 38)  0.1191 ( 66) -0.1591 ( 72)  0.1437 ( 78)
          -0.1307 ( 83)  0.1146 ( 84) -0.1235 ( 85)  0.1103 ( 87)  0.1476 ( 88)
          -0.1501 ( 89) -0.1540 ( 91) -0.1843 ( 95) -0.1172 ( 99) -0.1442 (101)
           0.1268 (105)  0.2062 (106)  0.1426 (108)  0.1803 (111) -0.2282 (112)
          -0.1407 (116) -0.1160 (119) -0.1721 (120) -0.2313 (121)  0.1666 (122)
          -0.1712 (126)  0.1277 (128)  0.1797 (129)
 CRD 44=   0.3152 (  3) -0.2686 (  5) -0.1078 ( 15) -0.1665 ( 16)  0.2211 ( 17)
           0.1476 ( 18) -0.1003 ( 19) -0.1608 ( 25) -0.2419 ( 32) -0.1229 ( 42)
          -0.1146 ( 52)  0.1870 ( 53)  0.1173 ( 54)  0.1288 ( 56)  0.1522 ( 58)
           0.2510 ( 66)  0.1792 ( 70)  0.1672 ( 76)  0.1858 (100) -0.2629 (109)
           0.1100 (116) -0.1522 (121) -0.1024 (129)
 CRD 45=   0.2588 (  3) -0.1893 (  4) -0.1609 (  6)  0.1572 ( 10) -0.1328 ( 11)
          -0.1032 ( 12)  0.2798 ( 14) -0.1140 ( 16) -0.1303 ( 17) -0.1393 ( 18)
           0.1516 ( 19)  0.1614 ( 21) -0.1625 ( 26) -0.1970 ( 34)  0.1242 ( 37)
           0.1170 ( 49)  0.1346 ( 51) -0.1221 ( 53) -0.1292 ( 56)  0.1746 ( 57)
           0.1064 ( 60)  0.1930 ( 61)  0.1635 ( 66)  0.1360 ( 74) -0.1528 ( 77)
           0.1178 ( 80) -0.1381 ( 97)  0.1350 (100) -0.1027 (102)  0.2281 (107)
          -0.1425 (121)
 CRD 46=  -0.2013 (  3)  0.1112 (  4)  0.1219 (  7) -0.1441 (  8)  0.1422 ( 11)
           0.1491 ( 14) -0.1992 ( 15) -0.3404 ( 16)  0.1552 ( 17)  0.1099 ( 32)
          -0.1936 ( 42) -0.2834 ( 52)  0.1534 ( 53)  0.1803 ( 58)  0.1299 ( 61)
          -0.2001 ( 66)  0.1590 ( 76) -0.1418 ( 77)  0.2433 ( 95) -0.1232 ( 96)
          -0.1602 (107)  0.1050 (118) -0.3060 (119)
 CRD 47=   0.2549 (  4) -0.1196 (  5)  0.1011 (  6) -0.1589 ( 11)  0.1223 ( 14)
          -0.1319 ( 17) -0.1626 ( 25)  0.1539 ( 26)  0.2097 ( 34) -0.1310 ( 35)
          -0.1310 ( 38) -0.1683 ( 53) -0.1356 ( 56)  0.1298 ( 57)  0.1398 ( 61)
          -0.1160 ( 66) -0.1038 ( 73)  0.1527 ( 78) -0.1393 ( 79) -0.1237 ( 80)
          -0.1414 ( 84)  0.1189 ( 92) -0.1642 ( 94) -0.1018 ( 95) -0.2337 (100)
           0.1034 (105)  0.1229 (112)  0.1023 (116) -0.1010 (117) -0.2422 (119)
          -0.1104 (121) -0.1912 (127)  0.1794 (128)
 CRD 48=   0.1061 (  5)  0.2070 (  7) -0.1205 ( 10) -0.1156 ( 31)  0.1029 ( 32)
          -0.1143 ( 40) -0.1143 ( 41)  0.1307 ( 43)  0.1307 ( 48) -0.1283 ( 69)
           0.1340 ( 70) -0.1198 ( 77)  0.1139 ( 81)  0.1145 ( 84)  0.1119 ( 85)
          -0.1935 ( 86)  0.1606 ( 90) -0.1063 ( 91)  0.1185 ( 93) -0.1063 ( 94)
          -0.2236 ( 98)  0.1379 (103)  0.1277 (105)  0.1683 (106) -0.1391 (108)
           0.1009 (114) -0.2123 (115)  0.2217 (116) -0.2536 (117) -0.1617 (118)
           0.1005 (124) -0.1633 (126)  0.2426 (128)
 CRD 49=  -0.2041 (  7)  0.1254 (  8)  0.2648 ( 11) -0.1938 ( 12)  0.1492 ( 29)
           0.1492 ( 30)  0.1207 ( 33)  0.1089 ( 35) -0.1594 ( 36)  0.1089 ( 38)
          -0.1594 ( 39) -0.1382 ( 44) -0.1382 ( 45) -0.1725 ( 50)  0.1709 ( 65)
          -0.1424 ( 67) -0.1116 ( 75)  0.1485 ( 79) -0.1728 ( 80)  0.1573 ( 85)
           0.1255 ( 86) -0.1931 ( 97) -0.1107 (102) -0.1290 (110) -0.2543 (114)
          -0.1265 (118)  0.3579 (125)
 CRD 50=  -0.1772 (  8)  0.1874 ( 10)  0.2368 ( 12) -0.1562 ( 13)  0.1036 ( 31)
           0.1134 ( 37)  0.1593 ( 40)  0.1593 ( 41) -0.1647 ( 43)  0.1486 ( 44)
           0.1486 ( 45) -0.1647 ( 48) -0.1117 ( 49) -0.2859 ( 71)  0.2279 ( 75)
          -0.1020 ( 76)  0.1022 ( 79)  0.1638 ( 81)  0.1406 ( 82) -0.1672 ( 83)
           0.1811 ( 85) -0.1832 (113) -0.2028 (114) -0.1576 (118)  0.1781 (122)
           0.1701 (123) -0.1337 (124) -0.1141 (125)
 CRD 51=   0.1052 ( 47) -0.1462 ( 68) -0.1600 ( 70)  0.1018 ( 73)  0.1510 ( 75)
           0.1374 ( 85) -0.1589 ( 86)  0.3508 ( 90) -0.1565 ( 93)  0.1054 ( 94)
          -0.1615 ( 98)  0.1347 ( 99) -0.3178 (104) -0.1650 (110)  0.1848 (111)
           0.1201 (112)  0.1312 (116) -0.3094 (117)  0.1263 (126) -0.1613 (127)
           0.3123 (129)
 CRD 52=   0.1531 (  7)  0.1351 ( 13) -0.1075 ( 16) -0.1230 ( 23)  0.1467 ( 24)
          -0.1626 ( 28)  0.1327 ( 46) -0.1318 ( 47)  0.1361 ( 72)  0.1720 ( 73)
          -0.1958 ( 74) -0.2006 ( 75) -0.1239 ( 76) -0.1067 ( 77) -0.1574 ( 78)
           0.2212 ( 81)  0.1692 ( 82)  0.1551 ( 83)  0.1631 ( 88) -0.1101 ( 89)
          -0.1185 ( 93) -0.1635 ( 96) -0.1408 (103) -0.1301 (104) -0.1279 (106)
          -0.2259 (118)  0.1610 (122)  0.1094 (126) -0.1291 (127) -0.1173 (128)
           0.2238 (129)
 CRD 53=  -0.1300 (  7) -0.1924 ( 12)  0.1046 ( 16)  0.1387 ( 25)  0.1373 ( 27)
           0.1164 ( 31) -0.1310 ( 35)  0.1678 ( 36) -0.1310 ( 38)  0.1678 ( 39)
          -0.1452 ( 46) -0.1720 ( 55) -0.1062 ( 71)  0.1780 ( 72) -0.1909 ( 73)
          -0.1395 ( 74)  0.1338 ( 75)  0.1429 ( 80)  0.1863 ( 81) -0.1692 ( 84)
          -0.1092 ( 85)  0.1294 ( 88) -0.1178 ( 90)  0.1481 ( 92) -0.1652 ( 94)
          -0.1812 (101) -0.1102 (103)  0.1447 (104) -0.1930 (118)  0.1992 (122)
           0.1001 (126) -0.1834 (127)  0.1557 (128) -0.1326 (129)
 CRD 54=   0.2081 ( 12)  0.3292 ( 23)  0.2916 ( 35)  0.2916 ( 38) -0.1289 ( 65)
          -0.2627 ( 68)  0.2384 ( 83)  0.2989 ( 92) -0.1224 ( 93) -0.2117 ( 94)
           0.1181 ( 98) -0.2438 (103)  0.1157 (106)  0.1001 (117)  0.1330 (126)
          -0.1691 (127)  0.1609 (128) -0.1265 (129)

 THE DETERMINANT OF THE G MATRIX IS 10**(   -19)


                     --------------------
                     INTERNAL COORDINATES
                     --------------------

                 - - ATOMS - -         COORDINATE      COORDINATE
 NO.   TYPE    I  J  K  L  M  N        (BOHR,RAD)       (ANG,DEG)
 ----------------------------------------------------------------
   1 STRETCH   1  6                     6.1739073       3.2670913
   2 STRETCH   3  4                     2.9194393       1.5449009
   3 STRETCH   1  2                     2.5231228       1.3351792
   4 STRETCH   1 12                     2.0521603       1.0859565
   5 STRETCH   1 11                     2.0507420       1.0852060
   6 STRETCH   2 13                     2.0507132       1.0851908
   7 STRETCH   2  3                     2.8493003       1.5077849
   8 STRETCH   3 14                     2.1031536       1.1129411
   9 STRETCH   3  4                     2.9194393       1.5449009
  10 STRETCH   3 15                     2.1030533       1.1128880
  11 STRETCH   4  5                     2.8722501       1.5199294
  12 STRETCH   4  9                     2.8836502       1.5259621
  13 STRETCH   4 16                     2.1011617       1.1118870
  14 STRETCH   5  6                     2.5359019       1.3419416
  15 STRETCH   5 17                     2.0531621       1.0864867
  16 STRETCH   6  7                     2.7865146       1.4745602
  17 STRETCH   6 18                     2.0513173       1.0855105
  18 STRETCH   7  8                     2.5243297       1.3358179
  19 STRETCH   7 19                     2.0512157       1.0854567
  20 STRETCH   8 20                     2.0525801       1.0861787
  21 STRETCH   8  9                     2.7914233       1.4771577
  22 STRETCH   9 10                     2.3073240       1.2209834
  23 BEND      1  6  7                  1.9043722     109.1124918
  24 BEND      1  6  5                  1.0094218      57.8356111
  25 BEND      1  2 13                  2.0673909     118.4527750
  26 BEND      1  2  3                  2.1074112     120.7457659
  27 BEND      1  6 18                  1.7876496     102.4247748
  28 BEND      2  1  6                  1.6146981      92.5153890
  29 BEND      2  3  4                  1.9813749     113.5244214
  30 BEND      2  3  4                  1.9813749     113.5244214
  31 BEND      2  3 14                  1.8652891     106.8731919
  32 BEND      2  1 12                  2.1109114     120.9463114
  33 BEND      2  3 15                  1.9149895     109.7208187
  34 BEND      2  1 11                  2.0955250     120.0647410
  35 BEND      3  4  9                  1.9490495     111.6723084
  36 BEND      3  4  5                  1.8886404     108.2111245
  37 BEND      3  2 13                  2.1083409     120.7990341
  38 BEND      3  4  9                  1.9490495     111.6723084
  39 BEND      3  4  5                  1.8886404     108.2111245
  40 BEND      3  4 16                  1.9048142     109.1378161
  41 BEND      3  4 16                  1.9048142     109.1378161
  42 BEND      4  5  6                  2.1551766     123.4825230
  43 BEND      4  3 15                  1.9053369     109.1677651
  44 BEND      4  3 14                  1.9029055     109.0284525
  45 BEND      4  3 14                  1.9029055     109.0284525
  46 BEND      4  9 10                  2.0992362     120.2773747
  47 BEND      4  9  8                  2.1152654     121.1957795
  48 BEND      4  3 15                  1.9053369     109.1677651
  49 BEND      4  5 17                  2.0637595     118.2447073
  50 BEND      5  4 16                  1.8673511     106.9913357
  51 BEND      5  4  9                  1.9554251     112.0376040
  52 BEND      5  6 18                  2.0853010     119.4789471
  53 BEND      5  6  7                  2.1223681     121.6027323
  54 BEND      6  1 11                  2.0458169     117.2166727
  55 BEND      6  1 12                  1.0500161      60.1614891
  56 BEND      6  7 19                  2.0820093     119.2903472
  57 BEND      6  7  8                  2.1115160     120.9809570
  58 BEND      6  5 17                  2.0642488     118.2727434
  59 BEND      7  8  9                  2.1061118     120.6713193
  60 BEND      7  8 20                  2.0865845     119.5524849
  61 BEND      7  6 18                  2.0755105     118.9179895
  62 BEND      8  9 10                  2.0686226     118.5233425
  63 BEND      8  7 19                  2.0896326     119.7271296
  64 BEND      9  8 20                  2.0904809     119.7757355
  65 BEND      9  4 16                  1.8963272     108.6515446
  66 BEND     11  1 12                  2.0767489     118.9889476
  67 BEND     14  3 15                  1.8917385     108.3886296
  68 TORSION   1  6  5 17               1.5096987      86.4993664
  69 TORSION   1  2  3 15               2.9971877     171.7262056
  70 TORSION   1  6  7 19              -2.0322606    -116.4399555
  71 TORSION   1  2  3  4              -1.1489719     -65.8312395
  72 TORSION   1  6  5  4              -1.6308454     -93.4405600
  73 TORSION   1  6  7  8               1.1173004      64.0165993
  74 TORSION   1  2  3 14               0.9496147      54.4089125
  75 TORSION   2  3  4  5              -0.0247708      -1.4192595
  76 TORSION   2  1  6  5               0.1159281       6.6421924
  77 TORSION   2  1  6 18               2.1610223     123.8174581
  78 TORSION   2  1  6  7              -1.9073829    -109.2849884
  79 TORSION   2  3  4 16              -2.0509454    -117.5105183
  80 TORSION   2  3  4  9               2.1353340     122.3456288
  81 TORSION   3  2  1 12              -0.0049623      -0.2843208
  82 TORSION   3  2  1  6               0.9782402      56.0490319
  83 TORSION   3  4  5 17              -1.0125223     -58.0132546
  84 TORSION   3  4  5  6               2.1280221     121.9266877
  85 TORSION   3  4  9 10               1.0655482      61.0514126
  86 TORSION   3  4  9  8              -2.0881046    -119.6395780
  87 TORSION   3  2  1 11               3.1366712     179.7180216
  88 TORSION   4  3  2 13               1.9825801     113.5934741
  89 TORSION   4  9  8 20               3.1265295     179.1369465
  90 TORSION   4  9  8  7              -0.0193902      -1.1109786
  91 TORSION   4  5  6 18              -3.1380734    -179.7983609
  92 TORSION   4  5  6  7               0.0072127       0.4132563
  93 TORSION   5  6  7 19              -3.1381941    -179.8052748
  94 TORSION   5  6  7  8               0.0113670       0.6512801
  95 TORSION   5  6  1 12               2.2910391     131.2668718
  96 TORSION   5  4  3 15               2.1175843     121.3286439
  97 TORSION   5  4  3 14              -2.1019261    -120.4314927
  98 TORSION   5  4  9  8               0.0338298       1.9383074
  99 TORSION   5  4  9 10              -3.0957027    -177.3707020
 100 TORSION   5  6  1 11              -2.0815829    -119.2659174
 101 TORSION   6  1  2 13              -2.1535430    -123.3889266
 102 TORSION   6  5  4 16              -2.1047809    -120.5950613
 103 TORSION   6  5  4  9              -0.0282418      -1.6181356
 104 TORSION   6  7  8  9              -0.0047761      -0.2736487
 105 TORSION   6  7  8 20               3.1324991     179.4789758
 106 TORSION   7  6  5 17              -3.1354285    -179.6468172
 107 TORSION   7  6  1 11               2.1782914     124.8069017
 108 TORSION   7  8  9 10               3.1103486     178.2098500
 109 TORSION   7  6  1 12               0.2677281      15.3396909
 110 TORSION   8  9  4 16               2.0932011     119.9315884
 111 TORSION   8  7  6 18              -3.1265524    -179.1382575
 112 TORSION   9  4  5 17               3.1143991     178.4419221
 113 TORSION   9  4  3 15              -2.0054962    -114.9064678
 114 TORSION   9  4  3 14               0.0581787       3.3333957
 115 TORSION   9  8  7 19              -3.1383659    -179.8151197
 116 TORSION  10  9  4 16              -1.0363315     -59.3774210
 117 TORSION  10  9  8 20              -0.0269169      -1.5422249
 118 TORSION  11  1  2 13               0.0048880       0.2800631
 119 TORSION  11  1  6 18              -0.0364888      -2.0906518
 120 TORSION  12  1  2 13              -3.1367455    -179.7222793
 121 TORSION  12  1  6 18              -1.9470520    -111.5578625
 122 TORSION  13  2  3 15              -0.1544456      -8.8490808
 123 TORSION  13  2  3 14              -2.2020186    -126.1663739
 124 TORSION  14  3  4 16               2.1550845     123.4772486
 125 TORSION  15  3  4 16               0.0914096       5.2373851
 126 TORSION  16  4  5 17               1.0378600      59.4649965
 127 TORSION  17  5  6 18               0.0024708       0.1415656
 128 TORSION  18  6  7 19               0.0070719       0.4051877
 129 TORSION  19  7  8 20              -0.0010907      -0.0624952

     ------------------------------------------
     THE POINT GROUP IS C1 , NAXIS= 0, ORDER= 1
     ------------------------------------------

     DIMENSIONS OF THE SYMMETRY SUBSPACES ARE
 A   =   60

 ..... DONE SETTING UP THE RUN .....
 STEP CPU TIME =     0.13 TOTAL CPU TIME =          0.1 (      0.0 MIN)
 TOTAL WALL CLOCK TIME=          0.2 SECONDS, CPU UTILIZATION IS    86.67%


          -----------------------------
          STATIONARY POINT LOCATION RUN
          -----------------------------


           ** GEOMETRY CONSTRAINTS ARE BEING APPLIED. **

          TRANSFORMING DISPLACEMENT FROM INTERNALS TO CARTESIANS
          THE ROOT MEAN SQUARE ERROR IN ITERATION   1 IS   0.19045004
          THE ROOT MEAN SQUARE ERROR IN ITERATION   2 IS   0.00621317
          THE ROOT MEAN SQUARE ERROR IN ITERATION   3 IS   0.00000959
          THE ROOT MEAN SQUARE ERROR IN ITERATION   4 IS   0.00000000
 WARNING! THE RADIUS IN CARTESIANS IS    4.30187
 OBTAINING INITIAL HESSIAN, HESS=CALC    

     ---------------------------------
     HESSIAN MATRIX CONTROL PARAMETERS
     ---------------------------------
     METHOD=ANALYTIC   NVIB  =       2   VIBSIZ= 0.01000
     RDHESS=       F   PURIFY=       F   PRTIFC=       F
     VIBANL=       F   DECOMP=       F   PROJCT=       F
     SCLFAC= 1.00000   PRTSCN=       F   NPRT  =       0
     PULCOR=       F   NPUN  =       0   REDOVB=       T
     HSSTYP=GENERAL 
 Old integral subroutine is used

     ------------------------------
     CPHF RESPONSE SOLUTION OPTIONS
     ------------------------------
     POLAR  =       F     NWORD  =       0
     CPHF   =AO      

          ********************
          1 ELECTRON INTEGRALS
          ********************
 ...... END OF ONE-ELECTRON INTEGRALS ......
 STEP CPU TIME =     0.06 TOTAL CPU TIME =          0.2 (      0.0 MIN)
 TOTAL WALL CLOCK TIME=          0.2 SECONDS, CPU UTILIZATION IS    90.48%

          -------------
          GUESS OPTIONS
          -------------
          GUESS =HUCKEL            NORB  =       0          NORDER=       0
          MIX   =       F          PRTMO =       F          PUNMO =       F
          TOLZ  = 1.0E-08          TOLE  = 1.0E-05
          SYMDEN=       F          PURIFY=       F

 INITIAL GUESS ORBITALS GENERATED BY HUCKEL   ROUTINE.
 HUCKEL GUESS REQUIRES     53820 WORDS.

 SYMMETRIES FOR INITIAL GUESS ORBITALS FOLLOW.   BOTH SET(S).
    36 ORBITALS ARE OCCUPIED (   10 CORE ORBITALS).
    11=A       12=A       13=A       14=A       15=A       16=A       17=A   
    18=A       19=A       20=A       21=A       22=A       23=A       24=A   
    25=A       26=A       27=A       28=A       29=A       30=A       31=A   
    32=A       33=A       34=A       35=A       36=A       37=A       38=A   
    39=A       40=A       41=A       42=A       43=A       44=A       45=A   
    46=A   
 ...... END OF INITIAL ORBITAL SELECTION ......
 STEP CPU TIME =     0.04 TOTAL CPU TIME =          0.2 (      0.0 MIN)
 TOTAL WALL CLOCK TIME=          0.2 SECONDS, CPU UTILIZATION IS    95.83%

                    ----------------------
                    AO INTEGRAL TECHNOLOGY
                    ----------------------
     S,P,L SHELL ROTATED AXIS INTEGRALS, REPROGRAMMED BY
        KAZUYA ISHIMURA (IMS) AND JOSE SIERRA (SYNSTAR).
     S,P,D,L SHELL ROTATED AXIS INTEGRALS PROGRAMMED BY
        KAZUYA ISHIMURA (INSTITUTE FOR MOLECULAR SCIENCE).
     S,P,D,F,G SHELL TO TOTAL QUARTET ANGULAR MOMENTUM SUM 5,
        ERIC PROGRAM BY GRAHAM FLETCHER (ELORET AND NASA ADVANCED
        SUPERCOMPUTING DIVISION, AMES RESEARCH CENTER).
     S,P,D,F,G,L SHELL GENERAL RYS QUADRATURE PROGRAMMED BY
        MICHEL DUPUIS (PACIFIC NORTHWEST NATIONAL LABORATORY).

          --------------------
          2 ELECTRON INTEGRALS
          --------------------

 THE -PK- OPTION IS OFF, THE INTEGRALS ARE NOT IN SUPERMATRIX FORM.
 STORING   15000 INTEGRALS/RECORD ON DISK, USING 12 BYTES/INTEGRAL.
 TWO ELECTRON INTEGRAL EVALUATION REQUIRES   89821 WORDS OF MEMORY.
 SCHWARZ INEQUALITY OVERHEAD:      1802 INTEGRALS, T=        0.00
 II,JST,KST,LST =  1  1  1  1 NREC =         1 INTLOC =    1
 II,JST,KST,LST =  2  1  1  1 NREC =         1 INTLOC =    2
 II,JST,KST,LST =  3  1  1  1 NREC =         1 INTLOC =   34
 II,JST,KST,LST =  4  1  1  1 NREC =         1 INTLOC =  144
 II,JST,KST,LST =  5  1  1  1 NREC =         1 INTLOC = 1366
 II,JST,KST,LST =  6  1  1  1 NREC =         1 INTLOC = 1967
 II,JST,KST,LST =  7  1  1  1 NREC =         1 INTLOC = 6872
 II,JST,KST,LST =  8  1  1  1 NREC =         1 INTLOC = 8489
 II,JST,KST,LST =  9  1  1  1 NREC =         2 INTLOC = 5930
 II,JST,KST,LST = 10  1  1  1 NREC =         2 INTLOC = 9725
 II,JST,KST,LST = 11  1  1  1 NREC =         4 INTLOC = 5113
 II,JST,KST,LST = 12  1  1  1 NREC =         4 INTLOC =12284
 II,JST,KST,LST = 13  1  1  1 NREC =         7 INTLOC =12337
 II,JST,KST,LST = 14  1  1  1 NREC =         8 INTLOC = 8189
 II,JST,KST,LST = 15  1  1  1 NREC =        13 INTLOC = 4418
 II,JST,KST,LST = 16  1  1  1 NREC =        14 INTLOC = 5624
 II,JST,KST,LST = 17  1  1  1 NREC =        21 INTLOC = 6715
 II,JST,KST,LST = 18  1  1  1 NREC =        23 INTLOC = 2860
 II,JST,KST,LST = 19  1  1  1 NREC =        33 INTLOC = 9608
 II,JST,KST,LST = 20  1  1  1 NREC =        35 INTLOC = 6315
 II,JST,KST,LST = 21  1  1  1 NREC =        47 INTLOC =10803
 II,JST,KST,LST = 22  1  1  1 NREC =        51 INTLOC = 8067
 II,JST,KST,LST = 23  1  1  1 NREC =        55 INTLOC =14016
 II,JST,KST,LST = 24  1  1  1 NREC =        60 INTLOC = 1206
 II,JST,KST,LST = 25  1  1  1 NREC =        64 INTLOC =13566
 II,JST,KST,LST = 26  1  1  1 NREC =        69 INTLOC =10743
 II,JST,KST,LST = 27  1  1  1 NREC =        75 INTLOC = 2723
 II,JST,KST,LST = 28  1  1  1 NREC =        80 INTLOC =12749
 II,JST,KST,LST = 29  1  1  1 NREC =        86 INTLOC =10318
 II,JST,KST,LST = 30  1  1  1 NREC =        92 INTLOC =10832
 SCHWARZ INEQUALITY TEST SKIPPED       25602 INTEGRAL BLOCKS.
 TOTAL NUMBER OF NONZERO TWO-ELECTRON INTEGRALS =             1470508
         99 INTEGRAL RECORDS WERE STORED ON DISK FILE  8.
  ...... END OF TWO-ELECTRON INTEGRALS .....
 STEP CPU TIME =     0.32 TOTAL CPU TIME =          0.6 (      0.0 MIN)
 TOTAL WALL CLOCK TIME=          0.6 SECONDS, CPU UTILIZATION IS    98.21%

          --------------------------
                 RHF SCF CALCULATION
          --------------------------

     NUCLEAR ENERGY =       515.9826708909
     MAXIT =   30     NPUNCH=    2
     EXTRAP=T  DAMP=F  SHIFT=F  RSTRCT=F  DIIS=F  DEM=F  SOSCF=T
     DENSITY MATRIX CONV=  1.00E-05
     SOSCF WILL OPTIMIZE     864 ORBITAL ROTATIONS, SOGTOL=   0.250
     MEMORY REQUIRED FOR RHF ITERS=     59496 WORDS.

 ITER EX DEM     TOTAL ENERGY        E CHANGE  DENSITY CHANGE     ORB. GRAD
   1  0  0     -415.1389398198  -415.1389398198   0.562744586   0.000000000
          ---------------START SECOND ORDER SCF---------------
   2  1  0     -415.7294143373    -0.5904745175   0.344734290   0.072965669
   3  2  0     -415.7731537455    -0.0437394081   0.157510561   0.056693803
   4  3  0     -415.8483314920    -0.0751777466   0.039185918   0.012603579
   5  4  0     -415.8514201108    -0.0030886187   0.014078915   0.006492924
   6  5  0     -415.8522496191    -0.0008295083   0.011416637   0.002448159
   7  6  0     -415.8524957277    -0.0002461086   0.007666712   0.001492646
   8  7  0     -415.8525206836    -0.0000249558   0.003754920   0.001698245
   9  8  0     -415.8525466873    -0.0000260038   0.000980990   0.000305454
  10  9  0     -415.8525487551    -0.0000020678   0.000504577   0.000233884
  11 10  0     -415.8525492555    -0.0000005004   0.000174079   0.000037015
  12 11  0     -415.8525493071    -0.0000000517   0.000039530   0.000009423
  13 12  0     -415.8525493149    -0.0000000078   0.000035322   0.000004624
  14 13  0     -415.8525493161    -0.0000000012   0.000015212   0.000002015
  15 14  0     -415.8525493163    -0.0000000002   0.000004467   0.000001428
  16 15  0     -415.8525493163    -0.0000000000   0.000001332   0.000000242

          -----------------
          DENSITY CONVERGED
          -----------------
     TIME TO FORM FOCK OPERATORS=       0.4 SECONDS (       0.0 SEC/ITER)
     TIME TO SOLVE SCF EQUATIONS=       0.1 SECONDS (       0.0 SEC/ITER)

 FINAL RHF ENERGY IS     -415.8525493163 AFTER  16 ITERATIONS

          ------------
          EIGENVECTORS
          ------------

                      1          2          3          4          5
                  -20.2530   -11.1048   -11.0765   -11.0640   -11.0562
                     A          A          A          A          A   
    1  C  1  S   -0.000000   0.000117  -0.006696  -0.018144   0.007062
    2  C  1  S    0.000002   0.000089  -0.001516  -0.003317   0.001050
    3  C  1  X    0.000001   0.000048  -0.002043  -0.001512   0.000315
    4  C  1  Y   -0.000001   0.000054   0.000398  -0.000190   0.000536
    5  C  1  Z    0.000001  -0.000035  -0.000363  -0.002085  -0.000201
    6  C  2  S    0.000000   0.000015  -0.000009  -0.001332   0.000025
    7  C  2  S   -0.000002   0.000003   0.000044  -0.000412  -0.000028
    8  C  2  X   -0.000002   0.000024   0.000207  -0.000659  -0.000006
    9  C  2  Y   -0.000004   0.000018  -0.000054  -0.000144  -0.000052
   10  C  2  Z    0.000002  -0.000026   0.000096  -0.000684  -0.000013
   11  C  3  S   -0.000003  -0.000082   0.000087  -0.000441   0.000048
   12  C  3  S    0.000006   0.000087   0.000016   0.000200   0.000020
   13  C  3  X    0.000007  -0.000063  -0.000001  -0.000038   0.000010
   14  C  3  Y    0.000020  -0.000050   0.000025  -0.000052  -0.000007
   15  C  3  Z   -0.000013   0.000002  -0.000064  -0.000032  -0.000021
   16  C  4  S   -0.000017  -0.000591  -0.000530  -0.000180  -0.000754
   17  C  4  S    0.000233  -0.005631  -0.000418  -0.006196  -0.000211
   18  C  4  X   -0.000142  -0.000804  -0.000222  -0.001249  -0.000169
   19  C  4  Y    0.000301  -0.003959   0.000012   0.003034   0.000015
   20  C  4  Z    0.000296   0.000895   0.000443   0.002818   0.000242
   21  C  5  S    0.000002  -0.000292   0.079311   0.988462   0.002868
   22  C  5  S    0.000049   0.000194  -0.006196   0.039866   0.000329
   23  C  5  X   -0.000028   0.000058  -0.002661   0.000640   0.000039
   24  C  5  Y   -0.000019   0.000098  -0.001151   0.001528   0.000160
   25  C  5  Z    0.000044  -0.000070   0.003490  -0.003932   0.000048
   26  C  6  S    0.000005  -0.000837   0.988649  -0.079451   0.004943
   27  C  6  S    0.000008  -0.000135   0.038000  -0.012742  -0.005623
   28  C  6  X    0.000018   0.000064  -0.002118   0.002234  -0.001187
   29  C  6  Y   -0.000032  -0.000087  -0.000496   0.001319  -0.003915
   30  C  6  Z   -0.000035  -0.000157   0.001837  -0.004538   0.000550
   31  C  7  S    0.000010  -0.000786  -0.004174  -0.002284   0.990150
   32  C  7  S    0.000001   0.000118  -0.006022   0.000633   0.036029
   33  C  7  X    0.000052   0.000053   0.001102   0.000012  -0.000543
   34  C  7  Y    0.000064   0.000047   0.003869  -0.000466   0.001200
   35  C  7  Z   -0.000073  -0.000096  -0.001172  -0.000037   0.000819
   36  C  8  S   -0.000027   0.000145  -0.000447  -0.001250   0.062824
   37  C  8  S    0.000416  -0.006835   0.000316  -0.000061  -0.005947
   38  C  8  X   -0.000120   0.002399  -0.000072   0.000048  -0.001123
   39  C  8  Y    0.000442   0.000570  -0.000174   0.000068   0.003533
   40  C  8  Z    0.000242  -0.003749   0.000048  -0.000076   0.002540
   41  C  9  S    0.000556   0.992394   0.000901   0.000235   0.000923
   42  C  9  S   -0.007346   0.034171   0.000005   0.000240  -0.000190
   43  C  9  X    0.001954   0.000338  -0.000114   0.000019  -0.000189
   44  C  9  Y   -0.004906   0.000655   0.000088  -0.000101   0.000269
   45  C  9  Z   -0.003640  -0.000577   0.000170  -0.000037   0.000326
   46  O 10  S    0.994259   0.000167   0.000009   0.000006   0.000018
   47  O 10  S    0.026070  -0.005924  -0.000086  -0.000039  -0.000169
   48  O 10  X    0.001748  -0.000575  -0.000009   0.000005  -0.000035
   49  O 10  Y   -0.004289   0.001289   0.000047   0.000029   0.000057
   50  O 10  Z   -0.003241   0.001070   0.000023  -0.000009   0.000061
   51  H 11  S   -0.000000  -0.000008   0.000290   0.000169  -0.000070
   52  H 12  S   -0.000001  -0.000202  -0.002676   0.000550  -0.001862
   53  H 13  S   -0.000000   0.000007   0.000006   0.000138  -0.000004
   54  H 14  S    0.000007  -0.000216   0.000008  -0.000017   0.000009
   55  H 15  S    0.000003  -0.000024   0.000014  -0.000024   0.000002
   56  H 16  S   -0.000047  -0.000254  -0.000049  -0.000079  -0.000024
   57  H 17  S   -0.000020  -0.000025  -0.000314  -0.006618  -0.000060
   58  H 18  S   -0.000020  -0.000044  -0.006830   0.000710   0.000014
   59  H 19  S   -0.000029  -0.000102   0.000068  -0.000093  -0.006858
   60  H 20  S   -0.000214   0.000070  -0.000033  -0.000021  -0.000254

                      6          7          8          9         10
                  -11.0497   -11.0479   -11.0343   -10.9947   -10.9592
                     A          A          A          A          A   
    1  C  1  S    0.991868  -0.002530   0.002356   0.000258  -0.003000
    2  C  1  S    0.036635  -0.000028   0.000194   0.000142  -0.007723
    3  C  1  X    0.000325   0.000027  -0.000006   0.000035   0.003231
    4  C  1  Y   -0.000965   0.000053  -0.000117  -0.000083   0.000882
    5  C  1  Z    0.001190  -0.000034  -0.000105  -0.000092  -0.003417
    6  C  2  S    0.003561  -0.000012   0.001926  -0.001038   0.991919
    7  C  2  S   -0.007040   0.000022  -0.006974   0.000061   0.037857
    8  C  2  X   -0.002723   0.000014   0.001340  -0.000117   0.001371
    9  C  2  Y   -0.000842  -0.000004  -0.003205  -0.000006   0.001225
   10  C  2  Z    0.003369  -0.000014  -0.002871  -0.000005  -0.000406
   11  C  3  S   -0.002291   0.000128   0.992328   0.005255  -0.001147
   12  C  3  S    0.000054   0.000012   0.035059  -0.001466  -0.007188
   13  C  3  X   -0.000125   0.000006  -0.001913  -0.001710  -0.001120
   14  C  3  Y   -0.000097   0.000006  -0.001217  -0.000322   0.003376
   15  C  3  Z    0.000158  -0.000009  -0.001792  -0.000278   0.003031
   16  C  4  S   -0.000224  -0.000461  -0.004619   0.992207   0.001113
   17  C  4  S   -0.000021   0.000152  -0.001882   0.035128   0.000096
   18  C  4  X   -0.000053  -0.000000   0.001714   0.003268   0.000197
   19  C  4  Y   -0.000056   0.000085   0.000267   0.000062   0.000114
   20  C  4  Z    0.000044   0.000016   0.000311  -0.000382   0.000057
   21  C  5  S    0.019423   0.001088   0.000484   0.001150   0.001618
   22  C  5  S   -0.001733   0.000004   0.000230  -0.006392  -0.000674
   23  C  5  X    0.001783  -0.000031  -0.000023   0.000901   0.001326
   24  C  5  Y    0.000178  -0.000096   0.000080  -0.003485  -0.000030
   25  C  5  Z    0.001671   0.000017   0.000045  -0.002657  -0.000084
   26  C  6  S    0.005649   0.000026  -0.000121   0.000626  -0.000160
   27  C  6  S   -0.000792   0.000667  -0.000011   0.000294   0.000029
   28  C  6  X    0.001161   0.000109  -0.000022   0.000016  -0.000257
   29  C  6  Y    0.000622   0.000347   0.000011  -0.000093  -0.000023
   30  C  6  Z    0.000536  -0.000121  -0.000015  -0.000017  -0.000068
   31  C  7  S   -0.007419  -0.062329  -0.000065   0.000818  -0.000003
   32  C  7  S    0.000052  -0.010836   0.000007  -0.000186   0.000003
   33  C  7  X   -0.000439   0.001220  -0.000012   0.000161   0.000017
   34  C  7  Y   -0.000067  -0.003840   0.000002   0.000040  -0.000009
   35  C  7  Z   -0.000214  -0.002775  -0.000004  -0.000331   0.000015
   36  C  8  S    0.002029   0.990072  -0.000133   0.000553   0.000002
   37  C  8  S    0.000150   0.037973   0.000001   0.000285  -0.000001
   38  C  8  X   -0.000019  -0.000047  -0.000018  -0.000017  -0.000004
   39  C  8  Y   -0.000039  -0.002465   0.000007  -0.000056  -0.000001
   40  C  8  Z   -0.000008  -0.000629   0.000001  -0.000009  -0.000005
   41  C  9  S   -0.000132   0.000718   0.000077   0.001565  -0.000017
   42  C  9  S    0.000041  -0.007047   0.000101  -0.006164  -0.000027
   43  C  9  X   -0.000032  -0.002358  -0.000073   0.000796  -0.000038
   44  C  9  Y   -0.000052  -0.000830  -0.000076   0.004236   0.000024
   45  C  9  Z   -0.000010   0.003677   0.000001  -0.000895  -0.000033
   46  O 10  S    0.000000  -0.000020  -0.000004  -0.000013   0.000001
   47  O 10  S    0.000002   0.000357   0.000015   0.000199  -0.000003
   48  O 10  X    0.000003   0.000089   0.000009  -0.000004   0.000005
   49  O 10  Y    0.000001  -0.000102  -0.000012  -0.000178   0.000002
   50  O 10  Z   -0.000001  -0.000148   0.000006   0.000050   0.000004
   51  H 11  S   -0.007025   0.000016  -0.000134  -0.000088   0.000081
   52  H 12  S   -0.006384  -0.000150  -0.000086  -0.000188   0.000100
   53  H 13  S    0.000117  -0.000000   0.000118  -0.000028  -0.006900
   54  H 14  S   -0.000093  -0.000005  -0.006733  -0.000015  -0.000066
   55  H 15  S   -0.000109   0.000001  -0.006627  -0.000066   0.000088
   56  H 16  S   -0.000057  -0.000022   0.000016  -0.006903  -0.000031
   57  H 17  S   -0.000193  -0.000036  -0.000010   0.000007  -0.000856
   58  H 18  S    0.000085  -0.000076   0.000002  -0.000128   0.000012
   59  H 19  S    0.000055   0.000538   0.000001  -0.000103   0.000000
   60  H 20  S   -0.000011  -0.006738  -0.000000  -0.000073   0.000001

                     11         12         13         14         15
                   -1.3096    -1.1580    -1.0419    -0.9850    -0.9297
                     A          A          A          A          A   
    1  C  1  S   -0.002105  -0.074821   0.090058  -0.082565   0.078921
    2  C  1  S    0.004746   0.184754  -0.240759   0.230431  -0.223414
    3  C  1  X    0.001000   0.030096   0.014017  -0.079282  -0.024690
    4  C  1  Y    0.000803   0.008744   0.016106  -0.020482   0.003438
    5  C  1  Z    0.001005   0.032007  -0.051971   0.061046   0.022454
    6  C  2  S   -0.001313  -0.044385   0.089744  -0.139072   0.011487
    7  C  2  S    0.002760   0.102558  -0.220624   0.353358  -0.030916
    8  C  2  X    0.000890   0.032168  -0.038476   0.019142  -0.025311
    9  C  2  Y    0.000762   0.014592  -0.027927   0.052837   0.019454
   10  C  2  Z   -0.000024  -0.013274   0.016069  -0.000966   0.057667
   11  C  3  S   -0.001712  -0.021905   0.052096  -0.106986  -0.041669
   12  C  3  S    0.004559   0.056310  -0.138472   0.292200   0.123034
   13  C  3  X    0.001561   0.010769  -0.008186   0.001651   0.016855
   14  C  3  Y    0.000504  -0.011724   0.031478  -0.053910   0.004873
   15  C  3  Z    0.000032  -0.012862   0.033298  -0.060319   0.006841
   16  C  4  S   -0.022139  -0.056272   0.000791   0.002778  -0.161185
   17  C  4  S    0.054712   0.139011  -0.003423  -0.003817   0.451946
   18  C  4  X    0.008906   0.020875   0.016885  -0.026943   0.056399
   19  C  4  Y    0.026206  -0.025440   0.035195   0.031211   0.009989
   20  C  4  Z   -0.006988  -0.039964   0.000525   0.009518  -0.030016
   21  C  5  S   -0.007640  -0.142154   0.046771   0.087714  -0.063754
[...]
 19   H            X  0.00358937 -0.00867191 -0.00557994 -0.04615383 -0.01616728
                   Y -0.00158743  0.01253606 -0.00348621 -0.15253773 -0.04195463
                   Z -0.00394977  0.01490021  0.01676180  0.07641540  0.02456928
 20   H            X  0.00408301 -0.00871643 -0.00503602 -0.03853250 -0.04363115
                   Y -0.00337510 -0.00072304 -0.01112003 -0.07814811 -0.00243868
                   Z -0.00568283  0.02079613  0.02565849  0.09681373  0.10089903

 TRANS. SAYVETZ    X -0.00000008  0.00000257 -0.00000190 -0.00000230 -0.00000104
                   Y -0.00000049  0.00000007 -0.00000016 -0.00000209 -0.00000077
                   Z  0.00000062 -0.00000064  0.00000054  0.00000064  0.00000173
               TOTAL  0.00000080  0.00000265  0.00000198  0.00000317  0.00000216

   ROT. SAYVETZ    X  0.00772071  0.00409107  0.01312342  0.00147690 -0.00191144
                   Y -0.06928810  0.00058713  0.01038821  0.00455274 -0.00200264
                   Z  0.00870727 -0.00811393 -0.03096317 -0.00728821  0.00461057
               TOTAL  0.07025857  0.00910590  0.03519740  0.00871933  0.00537788

                           51          52          53          54          55
       FREQUENCY:      3622.31     3659.30     3688.75     3699.68     3704.50  
        SYMMETRY:         A           A           A           A           A   
    REDUCED MASS:      1.06250     1.06462     1.09218     1.09161     1.09193
    IR INTENSITY:      0.09809     0.20408     0.19436     0.09120     0.56654

  1   C            X -0.00080472 -0.00026424 -0.00009464 -0.00077427 -0.00060245
                   Y -0.00146219  0.00086749  0.00075700 -0.00058157  0.00002087
                   Z  0.06805122 -0.00545428 -0.00170239  0.00204575  0.00095011
  2   C            X  0.00181043 -0.00556342 -0.00036092  0.00202116  0.00140779
                   Y -0.00442501 -0.01348030 -0.00174168  0.00905631  0.00581816
                   Z -0.00178533  0.01227206 -0.00018845 -0.00257402 -0.00171118
  3   C            X  0.00092946  0.02453252 -0.00215119  0.00139616  0.00089965
                   Y -0.00237564 -0.04760855  0.00493854 -0.00416259 -0.00211236
                   Z -0.00226798 -0.03923897  0.00388642 -0.00234769 -0.00139264
  4   C            X -0.00007486 -0.00126440 -0.00296566  0.01151424  0.00398949
                   Y -0.00048362 -0.00036574 -0.00320833  0.00840896  0.00237750
                   Z  0.00142947  0.00291304  0.01379685 -0.05125778 -0.01745033
  5   C            X -0.00029046  0.00006241 -0.00249666  0.00311019  0.00019005
                   Y  0.00142506  0.00354084  0.02689707 -0.04579359 -0.00904969
                   Z -0.00047654 -0.00174041 -0.00817099  0.02197976  0.00588116
  6   C            X  0.00087547  0.00294957  0.03916241  0.01330006  0.01284892
                   Y -0.00125962 -0.00347588 -0.05283127 -0.01582792 -0.01943169
                   Z -0.00159796 -0.00143739 -0.03669194 -0.01451822 -0.01203033
  7   C            X -0.00041135 -0.00056764 -0.00604149 -0.00962840  0.02494386
                   Y  0.00003002  0.00006656  0.00064910 -0.00180703  0.00873855
                   Z  0.00026810  0.00101581  0.01486462  0.02281133 -0.05860612
  8   C            X  0.00005652  0.00014677  0.00161353  0.00294323 -0.00863321
                   Y  0.00030209  0.00090186  0.00557738  0.01200878 -0.03749982
                   Z -0.00013588 -0.00027069 -0.00267139 -0.00513094  0.01465303
  9   C            X -0.00012820 -0.00046921  0.00004418 -0.00060045  0.00044720
                   Y  0.00018831  0.00009427  0.00018730 -0.00178609  0.00053502
                   Z -0.00006598 -0.00020133 -0.00008405  0.00145726 -0.00100074
 10   O            X  0.00002819 -0.00001688 -0.00000411  0.00004325 -0.00003903
                   Y -0.00004346 -0.00004491  0.00003101  0.00021072 -0.00015490
                   Z -0.00000760 -0.00004030  0.00003531 -0.00015340  0.00006078
 11   H            X  0.04858743 -0.00323066 -0.00179505  0.00196775  0.00162009
                   Y -0.55792312  0.03364209  0.01419009 -0.00776503 -0.00442407
                   Z -0.37224564  0.02202482  0.00963359 -0.00507048 -0.00277719
 12   H            X -0.06750855  0.00589985 -0.00018868 -0.00061606 -0.00088796
                   Y  0.57456406 -0.04280319 -0.01890069  0.01436561  0.00633978
                   Z -0.37667465  0.02884920  0.01116023 -0.00872558 -0.00418660
 13   H            X  0.01490286  0.05407294  0.00299575 -0.02310892 -0.01507780
                   Y  0.05813350  0.22670851  0.01321608 -0.09658462 -0.06301639
                   Z -0.02228375 -0.07788005 -0.00441862  0.03370961  0.02190534
 14   H            X  0.00426528  0.06804988 -0.00778126  0.00533092  0.00297584
                   Y  0.03007355  0.57398240 -0.05559543  0.04161504  0.02152519
                   Z -0.01038259 -0.19669845  0.01851842 -0.01417406 -0.00743403
 15   H            X -0.01814205 -0.33866063  0.02996831 -0.01826301 -0.01088059
                   Y -0.00366254 -0.07481582  0.00683073 -0.00394591 -0.00246934
                   Z  0.03211541  0.60795576 -0.05541403  0.03465857  0.02012552
 16   H            X  0.00345828  0.00668333  0.03583638 -0.13209562 -0.04422864
                   Y  0.00243591  0.00460921  0.02239627 -0.07983888 -0.02716642
                   Z -0.01837303 -0.03449024 -0.16174757  0.59134698  0.19828106
 17   H            X  0.00133568  0.00329501  0.02387377 -0.04348632 -0.00836698
                   Y -0.01777682 -0.04288777 -0.30355205  0.53597004  0.10863679
                   Z  0.00715496  0.01751107  0.12354551 -0.22204130 -0.04600055
 18   H            X -0.01224772 -0.03256024 -0.45765904 -0.14820501 -0.15334357
                   Y  0.01420059  0.03938397  0.59220235  0.19104679  0.20110725
                   Z  0.00965500  0.02634431  0.40625102  0.13358481  0.13658498
 19   H            X  0.00216416  0.00559672  0.06995226  0.10977622 -0.28244863
                   Y  0.00073939  0.00162134  0.02103739  0.03379387 -0.09005861
                   Z -0.00530192 -0.01347315 -0.16804743 -0.25933154  0.66503071
 20   H            X -0.00062814 -0.00180474 -0.01316329 -0.02920018  0.08866898
                   Y -0.00411825 -0.01075443 -0.06876753 -0.14995587  0.45451089
                   Z  0.00133642  0.00320785  0.02191415  0.04632696 -0.14059752

 TRANS. SAYVETZ    X -0.00000087 -0.00000083  0.00000012  0.00000006  0.00000005
                   Y  0.00000015  0.00000012 -0.00000007  0.00000056 -0.00000002
                   Z  0.00000017  0.00000039  0.00000004  0.00000036 -0.00000025
               TOTAL  0.00000090  0.00000092  0.00000015  0.00000067  0.00000026

   ROT. SAYVETZ    X -0.00134373  0.00119989  0.00140488  0.00084744  0.00076885
                   Y  0.00879490  0.00294902  0.00636418 -0.00067921  0.00105174
                   Z -0.00011177 -0.00359287 -0.00651968 -0.00269358 -0.00273325
               TOTAL  0.00889766  0.00480054  0.00921861  0.00290428  0.00302786

                           56          57          58          59          60
       FREQUENCY:      3707.69     3722.26     3735.44     3772.18     3818.55  
        SYMMETRY:         A           A           A           A           A   
    REDUCED MASS:      1.09854     1.10301     1.10588     1.11703     1.11817
    IR INTENSITY:      0.04634     0.02294     0.05826     0.00524     0.00803

  1   C            X  0.00147790 -0.00006693  0.00004159  0.00999411  0.00016590
                   Y  0.00588783 -0.00091942 -0.00045035 -0.09363445 -0.00157790
                   Z -0.00542979  0.00048352  0.00005221 -0.00200475 -0.00041373
  2   C            X -0.01855279  0.00112663  0.00001538 -0.00143212 -0.00064548
                   Y -0.07679621  0.00389715  0.00001568 -0.00367864 -0.00262879
                   Z  0.02232162 -0.00133580  0.00001247  0.00174555  0.00063937
  3   C            X -0.00556001  0.00032102  0.00011366  0.00024735 -0.03129293
                   Y  0.01915709 -0.00129255 -0.00027387  0.00160366 -0.06119565
                   Z  0.01101193  0.00047177 -0.00008300 -0.00060417  0.06513144
  4   C            X  0.00331147  0.01606648  0.00153836 -0.00000494 -0.00030186
                   Y  0.00117171  0.00233112  0.00030818 -0.00000332  0.00015555
                   Z -0.01161567 -0.05955550 -0.00555296  0.00028565  0.00060723
  5   C            X  0.00020448 -0.00817365 -0.00076058  0.00003505  0.00017909
                   Y -0.00436498  0.05770711  0.00606145 -0.00040347 -0.00040436
                   Z  0.00278611 -0.01964336 -0.00221752  0.00014517 -0.00005926
  6   C            X  0.00085306 -0.00565751 -0.00203932  0.00020623  0.00025226
                   Y -0.00109152  0.00720958  0.00488519  0.00056064 -0.00008566
                   Z -0.00068392  0.00827335  0.00212019 -0.00009238  0.00004433
  7   C            X  0.00105824  0.00102326 -0.01918936  0.00012210  0.00002373
                   Y  0.00043533 -0.00091519  0.00153115 -0.00003348 -0.00004434
                   Z -0.00250260 -0.00251305  0.04569386 -0.00036938 -0.00016961
  8   C            X -0.00029879  0.00125242 -0.01082186 -0.00002179 -0.00011245
                   Y -0.00138791  0.00814280 -0.07173914  0.00025798 -0.00002734
                   Z  0.00052631 -0.00179239  0.01518071 -0.00004465  0.00010783
  9   C            X -0.00000818 -0.00032034  0.00094656  0.00000951 -0.00039148
                   Y -0.00029644 -0.00185912  0.00014287  0.00002598  0.00000374
                   Z  0.00024477  0.00072334 -0.00214603  0.00003273 -0.00023976
 10   O            X  0.00002974 -0.00001923 -0.00014040  0.00000067 -0.00005015
                   Y  0.00005503  0.00027722  0.00013370  0.00000158 -0.00003223
                   Z -0.00001317  0.00002114  0.00030388 -0.00000266 -0.00001993
 11   H            X -0.00156863 -0.00017996 -0.00002070 -0.04518162 -0.00065943
                   Y -0.00652111  0.00190852  0.00208826  0.55823002  0.00962263
                   Z -0.00338367  0.00133554  0.00134038  0.37755437  0.00591447
 12   H            X  0.00794471 -0.00052818 -0.00072108 -0.06757666 -0.00032963
                   Y -0.05564607  0.00762868  0.00366726  0.54102854  0.00740041
                   Z  0.03356460 -0.00441720 -0.00239562 -0.36016035 -0.00495861
 13   H            X  0.20054929 -0.01020244  0.00011637  0.01384912  0.00789151
                   Y  0.83314172 -0.04333569  0.00003851  0.04687036  0.03497665
                   Z -0.29142941  0.01526347 -0.00008516 -0.01900231 -0.00885591
 14   H            X -0.02067783  0.00188644  0.00070306 -0.00174422  0.07504478
                   Y -0.16798561  0.01484527  0.00333012 -0.01554512  0.66372792
                   Z  0.06013555 -0.00551345 -0.00113374  0.00564207 -0.22514793
 15   H            X  0.07350022 -0.00113487 -0.00119921 -0.00288580  0.30093668
                   Y  0.01526033 -0.00033660 -0.00032367 -0.00019392  0.06228211
                   Z -0.13404689  0.00238476  0.00219592  0.00558244 -0.54071957
 16   H            X -0.02958205 -0.14414304 -0.01253444  0.00060724  0.00210226
                   Y -0.01742152 -0.08479770 -0.00729739  0.00038403  0.00099436
                   Z  0.13001094  0.64019130  0.05599195 -0.00265113 -0.00812475
 17   H            X -0.00436898  0.05081266  0.00542315 -0.00029919 -0.00016598
                   Y  0.05598133 -0.60697740 -0.06150531  0.00404489  0.00343653
                   Z -0.02339907  0.24956707  0.02514379 -0.00171612 -0.00123510
 18   H            X -0.00926418  0.06533454  0.02855247 -0.00373751 -0.00107216
                   Y  0.01161222 -0.08531704 -0.03905750  0.00253324  0.00114299
                   Z  0.00767385 -0.06055627 -0.02606097  0.00146383  0.00075318
 19   H            X -0.01172763 -0.01059691  0.19662998 -0.00157711 -0.00067096
                   Y -0.00376282 -0.00295890  0.06033684 -0.00029602 -0.00019119
                   Z  0.02791955  0.02534802 -0.46327057  0.00340699  0.00128258
 20   H            X  0.00326641 -0.01728085  0.14433583 -0.00047796  0.00020449
                   Y  0.01655220 -0.08975324  0.74528142 -0.00229916  0.00064519
                   Z -0.00518931  0.02774160 -0.22832450  0.00071280 -0.00024983

 TRANS. SAYVETZ    X -0.00000024 -0.00000031 -0.00000007 -0.00000009 -0.00000008
                   Y  0.00000027  0.00000063 -0.00000003  0.00000025  0.00000005
                   Z  0.00000013  0.00000011 -0.00000023  0.00000005 -0.00000012
               TOTAL  0.00000038  0.00000071  0.00000024  0.00000027  0.00000015

   ROT. SAYVETZ    X  0.00014795  0.00018180 -0.00015336 -0.00399944  0.00164994
                   Y -0.00220991 -0.00512319 -0.00069602 -0.00055949 -0.00440526
                   Z  0.00026038  0.00085479  0.00060777  0.01081695 -0.00309177
               TOTAL  0.00223011  0.00519719  0.00093667  0.01154621  0.00562917

 REFERENCE ON SAYVETZ CONDITIONS - A. SAYVETZ, J.CHEM.PHYS., 7, 383-389(1939).

 NOTE - THE MODES J,K ARE ORTHONORMALIZED ACCORDING TO
 SUM ON I   M(I) * (X(I,J)*X(I,K) + Y(I,J)*Y(I,K) + Z(I,J)*Z(I,K)) = DELTA(J,K)

  MODE FREQ(CM**-1)  SYMMETRY  RED. MASS  IR INTENS.
     1     702.657    A        8.975147    0.064699
     2      57.878    A        4.433120    0.011501
     3       1.831    A        4.692937    0.016625
     4       0.011    A        6.702466    0.000000
     5       0.003    A        6.703359    0.000000
     6       0.132    A        6.830268    0.000087
     7      37.671    A        5.141880    0.012699
     8     123.300    A        3.838062    0.028078
     9     160.473    A        4.938681    0.007710
    10     270.483    A        3.623791    0.012622
    11     340.615    A        4.528648    0.062354
    12     409.667    A        5.815765    0.137315
    13     441.473    A        1.933666    0.037538
    14     474.409    A        3.344924    0.156663
    15     497.657    A        4.072427    0.153105
    16     507.245    A        2.153124    0.095130
    17     541.402    A        2.457257    0.034526
    18     597.674    A        4.820347    0.054896
    19     664.871    A        6.357119    0.006930
    20     831.467    A        3.248688    0.058054
    21     855.849    A        4.291151    0.055324
    22     889.841    A        1.668714    0.313096
    23     935.062    A        1.653036    0.196861
    24     955.088    A        1.507932    0.377825
    25     974.133    A        1.496801    0.263883
    26    1031.799    A        1.555923    0.273755
    27    1080.733    A        1.964303    0.143696
    28    1126.224    A        1.898763    0.033615
    29    1159.905    A        1.787502    0.041758
    30    1192.123    A        1.378531    0.026835
    31    1210.643    A        1.265226    0.001707
    32    1230.439    A        1.425258    0.208845
    33    1235.900    A        1.363939    0.025467
    34    1255.255    A        1.192011    0.185156
    35    1292.865    A        1.142920    0.552100
    36    1315.340    A        1.266221    0.127652
    37    1352.925    A        1.265767    0.395979
    38    1367.065    A        1.102515    0.019096
    39    1424.314    A        1.793461    0.699919
    40    1430.297    A        1.524934    0.025832
    41    1526.792    A        1.391301    0.024299
    42    1602.946    A        1.567677    0.179895
    43    1647.217    A        1.615050    0.154825
    44    1676.780    A        1.728105    0.044872
    45    1701.549    A        1.747779    0.079230
    46    1792.925    A        1.233562    0.178012
    47    1846.432    A        3.144749    0.071917
    48    1927.680    A        3.630267    0.070738
    49    2005.721    A        7.279630    0.042176
    50    2068.605    A        9.989481    1.781494
    51    3622.307    A        1.062500    0.098087
    52    3659.296    A        1.064619    0.204081
    53    3688.749    A        1.092183    0.194360
    54    3699.675    A        1.091611    0.091197
    55    3704.498    A        1.091934    0.566544
    56    3707.694    A        1.098536    0.046340
    57    3722.262    A        1.103007    0.022935
    58    3735.437    A        1.105883    0.058262
    59    3772.179    A        1.117028    0.005236
    60    3818.548    A        1.118171    0.008026

     -------------------------------
     THERMOCHEMISTRY AT T=  298.15 K
     -------------------------------

 USING IDEAL GAS, RIGID ROTOR, HARMONIC NORMAL MODE APPROXIMATIONS.
 P=  1.01325E+05 PASCAL.
 ALL FREQUENCIES ARE SCALED BY   1.00000
 THE MOMENTS OF INERTIA ARE (IN AMU*BOHR**2)
            892.35237          1328.63297          1680.22836
 THE ROTATIONAL SYMMETRY NUMBER IS  1.0
 THE ROTATIONAL CONSTANTS ARE (IN GHZ)
      2.02060     1.35710     1.07312
   1 IMAGINARY FREQUENCY VIBRATION(S) IS(ARE) EXCLUDED
     FROM THE FOLLOWING THERMOCHEMICAL ANALYSIS.
      8 -     60 VIBRATIONAL MODES ARE USED IN THERMOCHEMISTRY.
 THE HARMONIC ZERO POINT ENERGY IS (SCALED BY   1.000)
        0.191603 HARTREE/MOLECULE    42051.913174 CM**-1/MOLECULE 
      120.232574 KCAL/MOL              503.053089 KJ/MOL

               Q               LN Q
 ELEC.     1.00000E+00       0.000000
 TRANS.    6.10192E+07      17.926699
 ROT.      5.05238E+05      13.132785
 VIB.      1.67302E+01       2.817214
 TOT.      5.15779E+14      33.876699

              E         H         G         CV        CP        S
           KJ/MOL    KJ/MOL    KJ/MOL   J/MOL-K   J/MOL-K   J/MOL-K
 ELEC.      0.000     0.000     0.000     0.000     0.000     0.000
 TRANS.     3.718     6.197   -44.439    12.472    20.786   169.836
 ROT.       3.718     3.718   -32.555    12.472    12.472   121.663
 VIB.     514.766   514.766   496.069    96.058    96.058    62.708
 TOTAL    522.203   524.681   419.075   121.001   129.315   354.207
 VIB. THERMAL CORRECTION E(T)-E(0) = H(T)-H(0) =     11712.628 J/MOL

              E         H         G         CV        CP        S
         KCAL/MOL  KCAL/MOL  KCAL/MOL CAL/MOL-K CAL/MOL-K CAL/MOL-K
 ELEC.      0.000     0.000     0.000     0.000     0.000     0.000
 TRANS.     0.889     1.481   -10.621     2.981     4.968    40.592
 ROT.       0.889     0.889    -7.781     2.981     2.981    29.078
 VIB.     123.032   123.032   118.563    22.958    22.958    14.988
 TOTAL    124.809   125.402   100.161    28.920    30.907    84.657
 VIB. THERMAL CORRECTION E(T)-E(0) = H(T)-H(0) =      2799.385 CAL/MOL

     *******************************************************
     * THIS IS NOT A STATIONARY POINT ON THE MOLECULAR PES *
     *     THE VIBRATIONAL ANALYSIS IS NOT VALID !!!       *
     *******************************************************
 ......END OF NORMAL COORDINATE ANALYSIS......
 STEP CPU TIME =     0.01 TOTAL CPU TIME =        177.5 (      3.0 MIN)
 TOTAL WALL CLOCK TIME=        178.2 SECONDS, CPU UTILIZATION IS    99.59%
               580000  WORDS OF DYNAMIC MEMORY USED
 EXECUTION OF GAMESS TERMINATED NORMALLY Sun Nov  7 03:13:28 2021
 DDI: 263640 bytes (0.3 MB / 0 MWords) used by master data server.

 ----------------------------------------
 CPU timing information for all processes
 ========================================
 0: 174.463 + 3.59 = 177.523
 ----------------------------------------
 ddikick.x: exited gracefully.
----- accounting info -----
Files used on the master node chemcompute-node-0.novalocal were:
-rw-r--r--. 1 chemcomp chemcomp     1346 Nov  7 03:10 /scratch/301912/336959.F05
-rw-rw-r--. 1 chemcomp chemcomp 17821584 Nov  7 03:12 /scratch/301912/336959.F08
-rw-rw-r--. 1 chemcomp chemcomp 85196800 Nov  7 03:13 /scratch/301912/336959.F10
-rw-rw-r--. 1 chemcomp chemcomp   878880 Nov  7 03:13 /scratch/301912/336959.F18
Sun Nov  7 03:13:31 UTC 2021
0.162u 0.116s 3:02.37 0.1%	0+0k 8+216io 0pf+0w
Finishing Up...
Looking for IR data...
Looking for Raman data...
vibramans not found
Looking for thermodynamics data...
Looking for UV-Vis data...
301912
