----- GAMESS execution script 'rungms' -----
This job is running on host chemcompute-node-0.novalocal
under operating system Linux at Mon Nov 15 04:08:06 UTC 2021
SLURM has assigned the following compute nodes to this run:
chemcompute-node-0
Available scratch disk space (Kbyte units) at beginning of the job is
Filesystem     1K-blocks     Used Available Use% Mounted on
/dev/sda1       62903276 16725056  46178220  27% /
GAMESS temporary binary files will be written to /scratch/306655
GAMESS supplementary output files will be written to /data/slurm/342669
Copying input file 342669.inp to your run's scratch directory...
The generated host list is
chemcompute-node-0.novalocal

 Distributed Data Interface kickoff program.
 Initiating 1 compute processes on 1 nodes to run the following command:
 /data/gamess-2019R1-ddi/gamess.00.x 342669 

          ******************************************************
          *         GAMESS VERSION = 30 JUN 2019 (R1)          *
          *             FROM IOWA STATE UNIVERSITY             *
          * M.W.SCHMIDT, K.K.BALDRIDGE, J.A.BOATZ, S.T.ELBERT, *
          *   M.S.GORDON, J.H.JENSEN, S.KOSEKI, N.MATSUNAGA,   *
          *          K.A.NGUYEN, S.J.SU, T.L.WINDUS,           *
          *       TOGETHER WITH M.DUPUIS, J.A.MONTGOMERY       *
          *         J.COMPUT.CHEM.  14, 1347-1363(1993)        *
          **************** 64 BIT LINUX VERSION ****************

  SINCE 1993, STUDENTS AND POSTDOCS WORKING AT IOWA STATE UNIVERSITY
  AND ALSO IN THEIR VARIOUS JOBS AFTER LEAVING ISU HAVE MADE IMPORTANT
  CONTRIBUTIONS TO THE CODE:
     IVANA ADAMOVIC, CHRISTINE AIKENS, YURI ALEXEEV, POOJA ARORA,
     ANDREY ASADCHEV, ROB BELL, PRADIPTA BANDYOPADHYAY, JONATHAN BENTZ,
     COLLEEN BERTONI, BRETT BODE, KURT BRORSEN, CALEB CARLIN, GALINA CHABAN,
     WEI CHEN, CHEOL HO CHOI, PAUL DAY, ALBERT DEFUSCO, NUWAN DESILVA,
     TIM DUDLEY, DMITRI FEDOROV, ALEX FINDLATER, GRAHAM FLETCHER, 
     MARK FREITAG, KURT GLAESEMANN, ANASTASIA GUNINA,
     DAN KEMP, GRANT MERRILL, NORIYUKI MINEZAWA, JONATHAN MULLIN,
     TAKESHI NAGATA, SEAN NEDD, HEATHER NETZLOFF, BOSILJKA NJEGIC, RYAN OLSON,
     MIKE PAK, BUU PHAM,
     SPENCER PRUITT, LUKE ROSKOP, JIM SHOEMAKER, LYUDMILA SLIPCHENKO,
     TONY SMITH, SAROM SOK LEANG, JIE SONG, TETSUYA TAKETSUGU, SIMON WEBB,
     PENG XU, SOOHAENG YOO, FEDERICO ZAHARIEV

  ADDITIONAL CODE HAS BEEN PROVIDED BY COLLABORATORS IN OTHER GROUPS:
     IOWA STATE UNIVERSITY:
          JOE IVANIC, AARON WEST, LAIMUTIS BYTAUTAS, KLAUS RUEDENBERG
     UNIVERSITY OF TOKYO: KIMIHIKO HIRAO, TAKAHITO NAKAJIMA,
          TAKAO TSUNEDA, MUNEAKI KAMIYA, SUSUMU YANAGISAWA,
          KIYOSHI YAGI, MAHITO CHIBA, SEIKEN TOKURA, NAOAKI KAWAKAMI
     UNIVERSITY OF AARHUS: FRANK JENSEN
     UNIVERSITY OF IOWA: VISVALDAS KAIRYS, HUI LI
     NATIONAL INST. OF STANDARDS AND TECHNOLOGY: WALT STEVENS, DAVID GARMER
     UNIVERSITY OF PISA: BENEDETTA MENNUCCI, JACOPO TOMASI
     UNIVERSITY OF MEMPHIS: HENRY KURTZ, PRAKASHAN KORAMBATH
     UNIVERSITY OF ALBERTA: TOBY ZENG, MARIUSZ KLOBUKOWSKI
     UNIVERSITY OF NEW ENGLAND: MARK SPACKMAN
     MIE UNIVERSITY: HIROAKI UMEDA
     NAT. INST. OF ADVANCED INDUSTRIAL SCIENCE AND TECHNOLOGY: KAZUO KITAURA
     MICHIGAN STATE UNIVERSITY:
          KAROL KOWALSKI, MARTA WLOCH, JEFFREY GOUR, JESSE LUTZ,
          WEI LI, JUN SHEN, J. EMILIANO DEUSTUA, PIOTR PIECUCH
     UNIVERSITY OF MINNESOTA:
          YINAN SHU
     UNIVERSITY OF SILESIA: MONIKA MUSIAL, STANISLAW KUCHARSKI
     FACULTES UNIVERSITAIRES NOTRE-DAME DE LA PAIX:
          OLIVIER QUINET, BENOIT CHAMPAGNE
     UNIVERSITY OF CALIFORNIA - SANTA BARBARA: BERNARD KIRTMAN
     INSTITUTE FOR MOLECULAR SCIENCE:
          KAZUYA ISHIMURA, MICHIO KATOUDA, AND SHIGERU NAGASE
     UNIVERSITY OF NOTRE DAME: ANNA POMOGAEVA, DAN CHIPMAN
     KYUSHU UNIVERSITY:
          HARUYUKI NAKANO,
          FENG LONG GU, JACEK KORCHOWIEC, MARCIN MAKOWSKI, AND YURIKO AOKI,
          HIROTOSHI MORI AND EISAKU MIYOSHI
     PENNSYLVANIA STATE UNIVERSITY:
          TZVETELIN IORDANOV, CHET SWALINA, JONATHAN SKONE,
          SHARON HAMMES-SCHIFFER
     WASEDA UNIVERSITY:
          MASATO KOBAYASHI, TOMOKO AKAMA, TSUGUKI TOUMA,
          TAKESHI YOSHIKAWA, YASUHIRO IKABATA, JUNJI SEINO,
          YUYA NAKAJIMA, HIROMI NAKAI
     NANJING UNIVERSITY: SHUHUA LI
     UNIVERSITY OF NEBRASKA:
          PEIFENG SU, DEJUN SI, NANDUN THELLAMUREGE, YALI WANG, HUI LI
     UNIVERSITY OF ZURICH: ROBERTO PEVERATI, KIM BALDRIDGE
     N. COPERNICUS UNIVERSITY AND JACKSON STATE UNIVERSITY:
          MARIA BARYSZ
     UNIVERSITY OF COPENHAGEN: Jimmy Kromann, CASPER STEINMANN
     TOKYO INSTITUTE OF TECHNOLOGY: HIROYA NAKATA
     NAGOYA UNIVERSITY: YOSHIO NISHIMOTO, STEPHAN IRLE
     MOSCOW STATE UNIVERSITY: VLADIMIR MIRONOV
     A.N.NESMEYANOV INSTITUTE OF ORGANOELEMENT COMPOUNDS OF RUSSIAN ACADEMY OF SCIENCES:
          IGOR S. GERASIMOV

 EXECUTION OF GAMESS BEGUN Mon Nov 15 04:08:08 2021

            ECHO OF THE FIRST FEW INPUT CARDS -
 INPUT CARD>!File created by the GAMESS Input Deck Generator Plugin for Avogadro            
 INPUT CARD> $BASIS GBASIS=STO NGAUSS=3 $END                                                
 INPUT CARD> $CONTRL SCFTYP=RHF RUNTYP=IRC $END                                             
 INPUT CARD> $STATPT HESS=READ ihrep=5 $END                                                 
 INPUT CARD> $irc npoint=100 saddle=.t. tsengy=.t. forwrd=.t. opttol=0.0005 stride=0.1 $end 
 INPUT CARD>                                                                                
 INPUT CARD> $DATA                                                                          
 INPUT CARD>Title                                                                           
 INPUT CARD>C1                                                                              
 INPUT CARD>C     6.0     3.73740149    -0.76250017    -3.13296604                          
 INPUT CARD>C     6.0     2.87444496    -0.85688329    -2.02685070                          
 INPUT CARD>C     6.0     2.86088300     0.18675293    -1.08645105                          
 INPUT CARD>C     6.0     4.65152645     0.34037581    -0.38072908                          
 INPUT CARD>C     6.0     5.42478275    -0.62664664    -1.04573309                          
 INPUT CARD>C     6.0     5.51936245    -0.48586729    -2.44343567                          
 INPUT CARD>C     6.0     5.77859974     0.92829490    -2.91393876                          
 INPUT CARD>C     6.0     5.52688599     1.97221291    -2.15207171                          
 INPUT CARD>C     6.0     4.94441938     1.80192804    -0.76699960                          
 INPUT CARD>O     8.0     4.72016335     2.73986864    -0.01507264                          
 INPUT CARD>H     1.0     3.82438850    -1.63987517    -3.76608658                          
 INPUT CARD>H     1.0     3.69762278     0.15344648    -3.71084905                          
 INPUT CARD>H     1.0     2.65217400    -1.85214722    -1.65938437                          
 INPUT CARD>H     1.0     2.77942061     1.19424140    -1.47826755                          
 INPUT CARD>H     1.0     2.25955892     0.04759366    -0.19404790                          
 INPUT CARD>H     1.0     4.50651503     0.21345311     0.68866551                          
 INPUT CARD>H     1.0     5.52637386    -1.61241221    -0.60856843                          
 INPUT CARD>H     1.0     6.08874178    -1.23720050    -2.98307252                          
 INPUT CARD>H     1.0     6.18492842     1.04546213    -3.91273808                          
 INPUT CARD>H     1.0     5.73844576     2.98433471    -2.47107530                          
 INPUT CARD> $END                                                                           
 INPUT CARD>                                                                                
 INPUT CARD> $HESS                                                                          
 INPUT CARD>ENERGY IS     -416.0940651668 E(NUC) IS      511.4677804338                     
 INPUT CARD> 1  1 1.37364802E-01-5.22306942E-02-2.06444126E-01-1.19173648E-01-8.77933100E-02
 INPUT CARD> 1  2 5.27893147E-02 1.09568295E-01 8.96492549E-02 1.12176428E-01-1.55621322E-01
 INPUT CARD> 1  3 5.21966564E-02 2.28109810E-03 2.83905742E-02-5.86105498E-02-1.79185026E-01
 INPUT CARD> 1  4 1.35809894E-01 3.67308342E-02 1.79558198E-01-3.16406075E-02-3.16860124E-02
 INPUT CARD> 1  5-9.11060405E-03-7.40961116E-03 8.89809053E-03 4.85752409E-03 1.15187026E-02
 INPUT CARD> 1  6-6.09160906E-04 5.20704955E-03-2.42296852E-03 3.31446382E-03-7.05190682E-04
 INPUT CARD> 1  7-4.88744371E-02 2.80050106E-02 3.33970399E-02-2.36571140E-02 1.88541744E-02
 INPUT CARD> 1  8 1.66045727E-02 5.87371394E-04 4.94280945E-03 3.53667836E-03-2.09352870E-02
 INPUT CARD> 1  9-3.67458235E-03-5.98096733E-03-7.74728029E-04-6.57197998E-04-1.68151700E-03
 INPUT CARD> 1 10 7.48137733E-03 2.14471202E-03 1.12993312E-03 3.79211239E-04-1.22052845E-03
 INPUT CARD> 1 11 1.58537102E-03-2.55927946E-02-8.53750573E-03-1.16453391E-02 1.54362311E-03
 INPUT CARD> 1 12 4.19814701E-04 3.74247479E-04 3.45481856E-03-1.34054082E-04 1.25345674E-03
 INPUT CARD> 2  1-5.22306942E-02 8.94076216E-01 3.56674073E-03-3.17096303E-03-1.68135102E-01
 INPUT CARD> 2  2-5.30571347E-03 4.03737480E-02 2.34355519E-02-1.62051213E-02-2.38116973E-02
 INPUT CARD> 2  3 7.56569002E-03-2.85581169E-03 7.93275210E-03-7.31526952E-03-2.38113261E-02
 INPUT CARD> 2  4 2.75189644E-02-4.03750762E-02 2.46835206E-02-2.00464403E-02-9.59774122E-03
 INPUT CARD> 2  5-6.91191675E-03-1.34170975E-03 1.69187026E-04 2.13159871E-04 7.02257256E-04
    1000000 WORDS OF MEMORY AVAILABLE

     BASIS OPTIONS
     -------------
     GBASIS=STO          IGAUSS=       3      POLAR=NONE    
     NDFUNC=       0     NFFUNC=       0     DIFFSP=       F
     NPFUNC=       0      DIFFS=       F     BASNAM=        


     RUN TITLE
     ---------
 Title                                                                           

 THE POINT GROUP OF THE MOLECULE IS C1      
 THE ORDER OF THE PRINCIPAL AXIS IS     0

 ATOM      ATOMIC                      COORDINATES (BOHR)
           CHARGE         X                   Y                   Z
 C           6.0     7.0626647222       -1.4409163869       -5.9204473444
 C           6.0     5.4319133412       -1.6192746216       -3.8301924410
 C           6.0     5.4062849529        0.3529118651       -2.0530947836
 C           6.0     8.7901104151        0.6432170137       -0.7194736368
 C           6.0    10.2513529404       -1.1841904407       -1.9761489964
 C           6.0    10.4300826574       -0.9181560445       -4.6174238849
 C           6.0    10.9199701013        1.7542229968       -5.5065458014
 C           6.0    10.4443000865        3.7269419893       -4.0668258378
 C           6.0     9.3435977966        3.4051502452       -1.4494190767
 O           8.0     8.9198153488        5.1776009720       -0.0284831595
 H           1.0     7.2270463356       -3.0989147254       -7.1168716822
 H           1.0     6.9874938602        0.2899718010       -7.0124878863
 H           1.0     5.0118821318       -3.5000507347       -3.1357817676
 H           1.0     5.2523433575        2.2567890092       -2.7935206060
 H           1.0     4.2699472119        0.0899389762       -0.3666973595
 H           1.0     8.5160785663        0.4033678891        1.3013891111
 H           1.0    10.4433323011       -3.0470172562       -1.1500275775
 H           1.0    11.5060535742       -2.3379699369       -5.6371896643
 H           1.0    11.6878199675        1.9756369562       -7.3940028329
 H           1.0    10.8440900818        5.6395748575       -4.6696552120

          INTERNUCLEAR DISTANCES (ANGS.)
          ------------------------------

                1 C          2 C          3 C          4 C          5 C     

   1 C       0.0000000    1.4060915 *  2.4202458 *  3.1027034    2.6874250 *
   2 C       1.4060915 *  0.0000000    1.4048886 *  2.7020667 *  2.7422297 *
   3 C       2.4202458 *  1.4048886 *  0.0000000    1.9308152 *  2.6901410 *
   4 C       3.1027034    2.7020667 *  1.9308152 *  0.0000000    1.4054494 *
   5 C       2.6874250 *  2.7422297 *  2.6901410 *  1.4054494 *  0.0000000  
   6 C       1.9306379 *  2.7031064 *  3.0596304    2.3854927 *  1.4079548 *
   7 C       2.6595585 *  3.5224851    3.5217420    2.8342714 *  2.4562618 *
   8 C       3.4121934    3.8800656    3.3809742    2.5625771 *  2.8263901 *
   9 C       3.6920159    3.5974014    2.6555534 *  1.5398461 *  2.4912680 *
  10 O       4.7909986    4.5155899    3.3351424    2.4281642 *  3.5905674  
  11 H       1.0854470 *  2.1308239 *  3.3830991    4.0082660    3.3148479  
  12 H       1.0837386 *  2.1293751 *  2.7547609 *  3.4690883    3.2702400  
  13 H       2.1299043 *  1.0839678 *  2.1281273 *  3.2310257    3.0928593  
  14 H       2.7357982 *  2.1253436 *  1.0840615 *  2.3320500 *  3.2404722  
  15 H       3.3878475    2.1343218 *  1.0850527 *  2.4170395 *  3.3464324  
  16 H       4.0185679    3.3441443    2.4207140 *  1.0866197 *  2.1347416 *
  17 H       3.2086377    3.1008185    3.2511857    2.1518945 *  1.0831285 *
  18 H       2.4034578 *  3.3750119    4.0054823    3.3654905    2.1370310 *
  19 H       3.1412036    4.2584962    4.4468593    3.9145314    3.4049210  
  20 H       4.2989591    4.8119426    4.2454700    3.5413923    3.8947620  

                6 C          7 C          8 C          9 C         10 O     

   1 C       1.9306379 *  2.6595585 *  3.4121934    3.6920159    4.7909986  
   2 C       2.7031064 *  3.5224851    3.8800656    3.5974014    4.5155899  
   3 C       3.0596304    3.5217420    3.3809742    2.6555534 *  3.3351424  
   4 C       2.3854927 *  2.8342714 *  2.5625771 *  1.5398461 *  2.4281642 *
   5 C       1.4079548 *  2.4562618 *  2.8263901 *  2.4912680 *  3.5905674  
   6 C       0.0000000    1.5127564 *  2.4752995 *  2.8939601 *  4.1159493  
   7 C       1.5127564 *  0.0000000    1.3166495 *  2.4634203 *  3.5784790  
   8 C       2.4752995 *  1.3166495 *  0.0000000    1.5121802 *  2.4097431 *
   9 C       2.8939601 *  2.4634203 *  1.5121802 *  0.0000000    1.2228726 *
  10 O       4.1159493    3.5784790    2.4097431 *  1.2228726 *  0.0000000  
  11 H       2.4400976 *  3.3377530    4.3070549    4.7005320    5.8356383  
  12 H       2.3095009 *  2.3592205 *  3.0139512    3.5969769    4.6253575  
  13 H       3.2714258    4.3679862    4.8096196    4.4048843    5.2978251  
  14 H       3.3558302    3.3357090    2.9339083 *  2.3584751 *  2.8803446 *
  15 H       3.9963289    4.5339926    4.2677210    3.2579807    3.6517052  
  16 H       3.3652588    3.8868954    3.4934483    2.1986300 *  2.6312865 *
  17 H       2.1531118 *  3.4399917    3.9028118    3.4672022    4.4659334  
  18 H       1.0862331 *  2.1886841 *  3.3625256    3.9315080    5.1477285  
  19 H       2.2241397 *  1.0846341 *  2.0956700 *  3.4650792    4.4953694  
  20 H       3.4772206    2.1035779 *  1.0820866 *  2.2209091 *  2.6699460 *

               11 H         12 H         13 H         14 H         15 H     

   1 C       1.0854470 *  1.0837386 *  2.1299043 *  2.7357982 *  3.3878475  
   2 C       2.1308239 *  2.1293751 *  1.0839678 *  2.1253436 *  2.1343218 *
   3 C       3.3830991    2.7547609 *  2.1281273 *  1.0840615 *  1.0850527 *
   4 C       4.0082660    3.4690883    3.2310257    2.3320500 *  2.4170395 *
   5 C       3.3148479    3.2702400    3.0928593    3.2404722    3.3464324  
   6 C       2.4400976 *  2.3095009 *  3.2714258    3.3558302    3.9963289  
   7 C       3.3377530    2.3592205 *  4.3679862    3.3357090    4.5339926  
   8 C       4.3070549    3.0139512    4.8096196    2.9339083 *  4.2677210  
   9 C       4.7005320    3.5969769    4.4048843    2.3584751 *  3.2579807  
  10 O       5.8356383    4.6253575    5.2978251    2.8803446 *  3.6517052  
  11 H       0.0000000    1.7986448 *  2.4201943 *  3.7892335    4.2492003  
  12 H       1.7986448 *  0.0000000    3.0535023    2.6288342 *  3.8009371  
  13 H       2.4201943 *  3.0535023    0.0000000    3.0544195    2.4311259 *
  14 H       3.7892335    2.6288342 *  3.0544195    0.0000000    1.7984097 *
  15 H       4.2492003    3.8009371    2.4311259 *  1.7984097 *  0.0000000  
  16 H       4.8728778    4.4736602    3.6357425    2.9394557 *  2.4198149 *
  17 H       3.5871199    4.0108269    3.0696436    4.0223666    3.6877536  
  18 H       2.4295172 *  2.8602461 *  3.7336722    4.3735517    4.9083598  
  19 H       3.5783644    2.6501208 *  5.0945163    4.1888263    5.4984474  
  20 H       5.1695248    3.7035018    5.7944347    3.5980455    5.0903787  

               16 H         17 H         18 H         19 H         20 H     

   1 C       4.0185679    3.2086377    2.4034578 *  3.1412036    4.2989591  
   2 C       3.3441443    3.1008185    3.3750119    4.2584962    4.8119426  
   3 C       2.4207140 *  3.2511857    4.0054823    4.4468593    4.2454700  
   4 C       1.0866197 *  2.1518945 *  3.3654905    3.9145314    3.5413923  
   5 C       2.1347416 *  1.0831285 *  2.1370310 *  3.4049210    3.8947620  
   6 C       3.3652588    2.1531118 *  1.0862331 *  2.2241397 *  3.4772206  
   7 C       3.8868954    3.4399917    2.1886841 *  1.0846341 *  2.1035779 *
   8 C       3.4934483    3.9028118    3.3625256    2.0956700 *  1.0820866 *
   9 C       2.1986300 *  3.4672022    3.9315080    3.4650792    2.2209091 *
  10 O       2.6312865 *  4.4659334    5.1477285    4.4953694    2.6699460 *
  11 H       4.8728778    3.5871199    2.4295172 *  3.5783644    5.1695248  
  12 H       4.4736602    4.0108269    2.8602461 *  2.6501208 *  3.7035018  
  13 H       3.6357425    3.0696436    3.7336722    5.0945163    5.7944347  
  14 H       2.9394557 *  4.0223666    4.3735517    4.1888263    3.5980455  
  15 H       2.4198149 *  3.6877536    4.9083598    5.4984474    5.0903787  
  16 H       0.0000000    2.4610388 *  4.2531750    4.9681209    4.3794292  
  17 H       2.4610388 *  0.0000000    2.4688684 *  4.2913316    4.9642712  
  18 H       4.2531750    2.4688684 *  0.0000000    2.4665925 *  4.2668733  
  19 H       4.9681209    4.2913316    2.4665925 *  0.0000000    2.4570237 *
  20 H       4.3794292    4.9642712    4.2668733    2.4570237 *  0.0000000  

  * ... LESS THAN  3.000


     ATOMIC BASIS SET
     ----------------
 THE CONTRACTED PRIMITIVE FUNCTIONS HAVE BEEN UNNORMALIZED
 THE CONTRACTED BASIS FUNCTIONS ARE NOW NORMALIZED TO UNITY

  SHELL TYPE  PRIMITIVE        EXPONENT          CONTRACTION COEFFICIENT(S)

 C         

      1   S       1            71.6168373    0.154328967295
      1   S       2            13.0450963    0.535328142282
      1   S       3             3.5305122    0.444634542185

      2   L       4             2.9412494   -0.099967229187    0.155916274999
      2   L       5             0.6834831    0.399512826089    0.607683718598
      2   L       6             0.2222899    0.700115468880    0.391957393099

 C         

      3   S       7            71.6168373    0.154328967295
      3   S       8            13.0450963    0.535328142282
      3   S       9             3.5305122    0.444634542185

      4   L      10             2.9412494   -0.099967229187    0.155916274999
      4   L      11             0.6834831    0.399512826089    0.607683718598
      4   L      12             0.2222899    0.700115468880    0.391957393099

 C         

      5   S      13            71.6168373    0.154328967295
      5   S      14            13.0450963    0.535328142282
      5   S      15             3.5305122    0.444634542185

      6   L      16             2.9412494   -0.099967229187    0.155916274999
      6   L      17             0.6834831    0.399512826089    0.607683718598
      6   L      18             0.2222899    0.700115468880    0.391957393099

 C         

      7   S      19            71.6168373    0.154328967295
      7   S      20            13.0450963    0.535328142282
      7   S      21             3.5305122    0.444634542185

      8   L      22             2.9412494   -0.099967229187    0.155916274999
      8   L      23             0.6834831    0.399512826089    0.607683718598
      8   L      24             0.2222899    0.700115468880    0.391957393099

 C         

      9   S      25            71.6168373    0.154328967295
      9   S      26            13.0450963    0.535328142282
      9   S      27             3.5305122    0.444634542185

     10   L      28             2.9412494   -0.099967229187    0.155916274999
     10   L      29             0.6834831    0.399512826089    0.607683718598
     10   L      30             0.2222899    0.700115468880    0.391957393099

 C         

     11   S      31            71.6168373    0.154328967295
     11   S      32            13.0450963    0.535328142282
     11   S      33             3.5305122    0.444634542185

     12   L      34             2.9412494   -0.099967229187    0.155916274999
     12   L      35             0.6834831    0.399512826089    0.607683718598
     12   L      36             0.2222899    0.700115468880    0.391957393099

 C         

     13   S      37            71.6168373    0.154328967295
     13   S      38            13.0450963    0.535328142282
     13   S      39             3.5305122    0.444634542185

     14   L      40             2.9412494   -0.099967229187    0.155916274999
     14   L      41             0.6834831    0.399512826089    0.607683718598
     14   L      42             0.2222899    0.700115468880    0.391957393099

 C         

     15   S      43            71.6168373    0.154328967295
     15   S      44            13.0450963    0.535328142282
     15   S      45             3.5305122    0.444634542185

     16   L      46             2.9412494   -0.099967229187    0.155916274999
     16   L      47             0.6834831    0.399512826089    0.607683718598
     16   L      48             0.2222899    0.700115468880    0.391957393099

 C         

     17   S      49            71.6168373    0.154328967295
     17   S      50            13.0450963    0.535328142282
     17   S      51             3.5305122    0.444634542185

     18   L      52             2.9412494   -0.099967229187    0.155916274999
     18   L      53             0.6834831    0.399512826089    0.607683718598
     18   L      54             0.2222899    0.700115468880    0.391957393099

 O         

     19   S      55           130.7093214    0.154328967295
     19   S      56            23.8088661    0.535328142282
     19   S      57             6.4436083    0.444634542185

     20   L      58             5.0331513   -0.099967229187    0.155916274999
     20   L      59             1.1695961    0.399512826089    0.607683718598
     20   L      60             0.3803890    0.700115468880    0.391957393099

 H         

     21   S      61             3.4252509    0.154328967295
     21   S      62             0.6239137    0.535328142282
     21   S      63             0.1688554    0.444634542185

 H         

     22   S      64             3.4252509    0.154328967295
     22   S      65             0.6239137    0.535328142282
     22   S      66             0.1688554    0.444634542185

 H         

     23   S      67             3.4252509    0.154328967295
     23   S      68             0.6239137    0.535328142282
     23   S      69             0.1688554    0.444634542185

 H         

     24   S      70             3.4252509    0.154328967295
     24   S      71             0.6239137    0.535328142282
     24   S      72             0.1688554    0.444634542185

 H         

     25   S      73             3.4252509    0.154328967295
     25   S      74             0.6239137    0.535328142282
     25   S      75             0.1688554    0.444634542185

 H         

     26   S      76             3.4252509    0.154328967295
     26   S      77             0.6239137    0.535328142282
     26   S      78             0.1688554    0.444634542185

 H         

     27   S      79             3.4252509    0.154328967295
     27   S      80             0.6239137    0.535328142282
     27   S      81             0.1688554    0.444634542185

 H         

     28   S      82             3.4252509    0.154328967295
     28   S      83             0.6239137    0.535328142282
     28   S      84             0.1688554    0.444634542185

 H         

     29   S      85             3.4252509    0.154328967295
     29   S      86             0.6239137    0.535328142282
     29   S      87             0.1688554    0.444634542185

 H         

     30   S      88             3.4252509    0.154328967295
     30   S      89             0.6239137    0.535328142282
     30   S      90             0.1688554    0.444634542185

 TOTAL NUMBER OF BASIS SET SHELLS             =   30
 NUMBER OF CARTESIAN GAUSSIAN BASIS FUNCTIONS =   60
 NUMBER OF ELECTRONS                          =   72
 CHARGE OF MOLECULE                           =    0
 SPIN MULTIPLICITY                            =    1
 NUMBER OF OCCUPIED ORBITALS (ALPHA)          =   36
 NUMBER OF OCCUPIED ORBITALS (BETA )          =   36
 TOTAL NUMBER OF ATOMS                        =   20
 THE NUCLEAR REPULSION ENERGY IS      511.4677804338

     $CONTRL OPTIONS
     ---------------
 SCFTYP=RHF          RUNTYP=IRC          EXETYP=RUN     
 MPLEVL=       0     CITYP =NONE         CCTYP =NONE         VBTYP =NONE    
 DFTTYP=NONE         TDDFT =NONE    
 MULT  =       1     ICHARG=       0     NZVAR =       0     COORD =UNIQUE  
 PP    =NONE         RELWFN=NONE         LOCAL =NONE         NUMGRD=       F
 ISPHER=      -1     NOSYM =       0     MAXIT =      30     UNITS =ANGS    
 PLTORB=       F     MOLPLT=       F     AIMPAC=       F     FRIEND=        
 NPRINT=       7     IREST =       0     GEOM  =INPUT   
 NORMF =       0     NORMP =       0     ITOL  =      20     ICUT  =       9
 INTTYP=BEST         GRDTYP=BEST         QMTTOL= 1.0E-06

     $SYSTEM OPTIONS
     ---------------
  REPLICATED MEMORY=     1000000 WORDS (ON EVERY NODE).
 DISTRIBUTED MEMDDI=           0 MILLION WORDS IN AGGREGATE,
 MEMDDI DISTRIBUTED OVER   1 PROCESSORS IS           0 WORDS/PROCESSOR.
 TOTAL MEMORY REQUESTED ON EACH PROCESSOR=     1000000 WORDS.
 TIMLIM=      525600.00 MINUTES, OR     365.0 DAYS.
 PARALL= F  BALTYP=  DLB     KDIAG=    0  COREFL= F
 MXSEQ2=     300 MXSEQ3=     150  mem10=         0

          ----------------
          PROPERTIES INPUT
          ----------------

     MOMENTS            FIELD           POTENTIAL          DENSITY
 IEMOM =       1   IEFLD =       0   IEPOT =       0   IEDEN =       0
 WHERE =COMASS     WHERE =NUCLEI     WHERE =NUCLEI     WHERE =NUCLEI  
 OUTPUT=BOTH       OUTPUT=BOTH       OUTPUT=BOTH       OUTPUT=BOTH    
 IEMINT=       0   IEFINT=       0                     IEDINT=       0
                                                       MORB  =       0
          EXTRAPOLATION IN EFFECT
          SOSCF IN EFFECT
 ORBITAL PRINTING OPTION: NPREO=     1    60     2     1

     -------------------------------
     INTEGRAL TRANSFORMATION OPTIONS
     -------------------------------
     NWORD  =            0
     CUTOFF = 1.0E-09     MPTRAN =       0
     DIRTRF =       F     AOINTS =DUP     

          ----------------------
          INTEGRAL INPUT OPTIONS
          ----------------------
 NOPK  =       1 NORDER=       0 SCHWRZ=       T

     ------------------------------------------
     THE POINT GROUP IS C1 , NAXIS= 0, ORDER= 1
     ------------------------------------------

     DIMENSIONS OF THE SYMMETRY SUBSPACES ARE
 A   =   60

 ..... DONE SETTING UP THE RUN .....
 STEP CPU TIME =     0.08 TOTAL CPU TIME =          0.1 (      0.0 MIN)
 TOTAL WALL CLOCK TIME=          0.6 SECONDS, CPU UTILIZATION IS    14.29%

          -----------------------------
          INTRINSIC REACTION COORDINATE
          -----------------------------
          PACE   =GS2     
          STRIDE = 0.10000 BOHR*SQRT(AMU)
          NPOINT =     100
          NEXTPT =       0
          STOTAL =  0.0000 BOHR*SQRT(AMU)
          SAB    =  0.0000 BOHR*SQRT(AMU)
          NPRT   =       0
          NPUN   =       0

          SADDLE =       T
          TSENGY =       T
          FORWRD =       T
          EVIB   = 0.00050 HARTREE
          FREQ   =     0.0 CM**-1

          STABLZ =       F
          ELBOW  =  175.00 DEGREES
          DELTA  = 0.02500 BOHR

          READQB =       F
          EB     =        0.0000000000 HARTREES
          GBNORM =        0.0000000000 HARTREES/SQRT(AMU)-BOHR

          GCUT   = 0.0000500 HARTREES/SQRT(AMU)-BOHR
          RCUT   = 0.0005000 BOHR
          ACUT   =    5.00 DEGREES
          MXOPT  =      20
          IHUPD  =       2

 ATOMIC MASSES USED (IN AMU) ARE
     C             12.0000
     C             12.0000
     C             12.0000
     C             12.0000
     C             12.0000
     C             12.0000
     C             12.0000
     C             12.0000
     C             12.0000
     O             15.9949
     H              1.0078
     H              1.0078
     H              1.0078
     H              1.0078
     H              1.0078
     H              1.0078
     H              1.0078
     H              1.0078
     H              1.0078
     H              1.0078

 JUMP AWAY FROM SADDLE POINT WILL BE FOUND FROM THE INPUT HESSIAN MATRIX

 COMPUTING WAVEFUNCTION AT TRANSITION STATE...

          ********************
          1 ELECTRON INTEGRALS
          ********************
 ...... END OF ONE-ELECTRON INTEGRALS ......
 STEP CPU TIME =     0.04 TOTAL CPU TIME =          0.1 (      0.0 MIN)
 TOTAL WALL CLOCK TIME=          0.8 SECONDS, CPU UTILIZATION IS    14.12%

          -------------
          GUESS OPTIONS
          -------------
          GUESS =HUCKEL            NORB  =       0          NORDER=       0
          MIX   =       F          PRTMO =       F          PUNMO =       F
          TOLZ  = 1.0E-08          TOLE  = 1.0E-05
          SYMDEN=       F          PURIFY=       F

 INITIAL GUESS ORBITALS GENERATED BY HUCKEL   ROUTINE.
 HUCKEL GUESS REQUIRES     53820 WORDS.

 SYMMETRIES FOR INITIAL GUESS ORBITALS FOLLOW.   BOTH SET(S).
    36 ORBITALS ARE OCCUPIED (   10 CORE ORBITALS).
    11=A       12=A       13=A       14=A       15=A       16=A       17=A   
    18=A       19=A       20=A       21=A       22=A       23=A       24=A   
    25=A       26=A       27=A       28=A       29=A       30=A       31=A   
    32=A       33=A       34=A       35=A       36=A       37=A       38=A   
    39=A       40=A       41=A       42=A       43=A       44=A       45=A   
    46=A   
 ...... END OF INITIAL ORBITAL SELECTION ......
 STEP CPU TIME =     0.03 TOTAL CPU TIME =          0.2 (      0.0 MIN)
 TOTAL WALL CLOCK TIME=          0.9 SECONDS, CPU UTILIZATION IS    17.05%

                    ----------------------
                    AO INTEGRAL TECHNOLOGY
                    ----------------------
     S,P,L SHELL ROTATED AXIS INTEGRALS, REPROGRAMMED BY
        KAZUYA ISHIMURA (IMS) AND JOSE SIERRA (SYNSTAR).
     S,P,D,L SHELL ROTATED AXIS INTEGRALS PROGRAMMED BY
        KAZUYA ISHIMURA (INSTITUTE FOR MOLECULAR SCIENCE).
     S,P,D,F,G SHELL TO TOTAL QUARTET ANGULAR MOMENTUM SUM 5,
        ERIC PROGRAM BY GRAHAM FLETCHER (ELORET AND NASA ADVANCED
        SUPERCOMPUTING DIVISION, AMES RESEARCH CENTER).
     S,P,D,F,G,L SHELL GENERAL RYS QUADRATURE PROGRAMMED BY
        MICHEL DUPUIS (PACIFIC NORTHWEST NATIONAL LABORATORY).

          --------------------
          2 ELECTRON INTEGRALS
          --------------------

 THE -PK- OPTION IS OFF, THE INTEGRALS ARE NOT IN SUPERMATRIX FORM.
 STORING   15000 INTEGRALS/RECORD ON DISK, USING 12 BYTES/INTEGRAL.
 TWO ELECTRON INTEGRAL EVALUATION REQUIRES   89821 WORDS OF MEMORY.
 SCHWARZ INEQUALITY OVERHEAD:      1797 INTEGRALS, T=        0.00
 II,JST,KST,LST =  1  1  1  1 NREC =         1 INTLOC =    1
 II,JST,KST,LST =  2  1  1  1 NREC =         1 INTLOC =    2
 II,JST,KST,LST =  3  1  1  1 NREC =         1 INTLOC =   34
 II,JST,KST,LST =  4  1  1  1 NREC =         1 INTLOC =  144
 II,JST,KST,LST =  5  1  1  1 NREC =         1 INTLOC = 1366
 II,JST,KST,LST =  6  1  1  1 NREC =         1 INTLOC = 1961
 II,JST,KST,LST =  7  1  1  1 NREC =         1 INTLOC = 6857
 II,JST,KST,LST =  8  1  1  1 NREC =         1 INTLOC = 8476
 II,JST,KST,LST =  9  1  1  1 NREC =         2 INTLOC = 5902
 II,JST,KST,LST = 10  1  1  1 NREC =         2 INTLOC = 9697
 II,JST,KST,LST = 11  1  1  1 NREC =         4 INTLOC = 5036
 II,JST,KST,LST = 12  1  1  1 NREC =         4 INTLOC =12141
 II,JST,KST,LST = 13  1  1  1 NREC =         7 INTLOC =12281
 II,JST,KST,LST = 14  1  1  1 NREC =         8 INTLOC = 8832
 II,JST,KST,LST = 15  1  1  1 NREC =        13 INTLOC = 6528
 II,JST,KST,LST = 16  1  1  1 NREC =        14 INTLOC = 8987
 II,JST,KST,LST = 17  1  1  1 NREC =        21 INTLOC =12895
 II,JST,KST,LST = 18  1  1  1 NREC =        23 INTLOC = 9072
 II,JST,KST,LST = 19  1  1  1 NREC =        34 INTLOC = 2214
 II,JST,KST,LST = 20  1  1  1 NREC =        35 INTLOC =13323
 II,JST,KST,LST = 21  1  1  1 NREC =        48 INTLOC = 3034
 II,JST,KST,LST = 22  1  1  1 NREC =        51 INTLOC =14189
 II,JST,KST,LST = 23  1  1  1 NREC =        56 INTLOC = 3638
 II,JST,KST,LST = 24  1  1  1 NREC =        60 INTLOC = 8200
 II,JST,KST,LST = 25  1  1  1 NREC =        65 INTLOC = 7300
 II,JST,KST,LST = 26  1  1  1 NREC =        70 INTLOC = 8483
 II,JST,KST,LST = 27  1  1  1 NREC =        76 INTLOC =  588
 II,JST,KST,LST = 28  1  1  1 NREC =        81 INTLOC =10921
 II,JST,KST,LST = 29  1  1  1 NREC =        87 INTLOC = 9414
 II,JST,KST,LST = 30  1  1  1 NREC =        93 INTLOC =12762
 SCHWARZ INEQUALITY TEST SKIPPED       24088 INTEGRAL BLOCKS.
 TOTAL NUMBER OF NONZERO TWO-ELECTRON INTEGRALS =             1490617
        100 INTEGRAL RECORDS WERE STORED ON DISK FILE  8.
  ...... END OF TWO-ELECTRON INTEGRALS .....
 STEP CPU TIME =     0.31 TOTAL CPU TIME =          0.5 (      0.0 MIN)
 TOTAL WALL CLOCK TIME=          1.2 SECONDS, CPU UTILIZATION IS    38.66%

          --------------------------
                 RHF SCF CALCULATION
          --------------------------

     NUCLEAR ENERGY =       511.4677804338
     MAXIT =   30     NPUNCH=    2
     EXTRAP=T  DAMP=F  SHIFT=F  RSTRCT=F  DIIS=F  DEM=F  SOSCF=T
     DENSITY MATRIX CONV=  1.00E-05
     SOSCF WILL OPTIMIZE     864 ORBITAL ROTATIONS, SOGTOL=   0.250
     MEMORY REQUIRED FOR RHF ITERS=     59496 WORDS.

 ITER EX DEM     TOTAL ENERGY        E CHANGE  DENSITY CHANGE     ORB. GRAD
   1  0  0     -415.5140795305  -415.5140795305   0.525883389   0.000000000
          ---------------START SECOND ORDER SCF---------------
   2  1  0     -416.0270296422    -0.5129501116   0.311408222   0.066122351
   3  2  0     -416.0575187666    -0.0304891245   0.150617921   0.049839939
   4  3  0     -416.0929947557    -0.0354759891   0.020744400   0.007809055
   5  4  0     -416.0939328851    -0.0009381294   0.005035404   0.003104971
   6  5  0     -416.0940496839    -0.0001167988   0.002244876   0.000765425
   7  6  0     -416.0940629524    -0.0000132685   0.000638471   0.000260496
   8  7  0     -416.0940649143    -0.0000019619   0.000253006   0.000073148
   9  8  0     -416.0940651177    -0.0000002034   0.000135493   0.000030773
  10  9  0     -416.0940651584    -0.0000000407   0.000086844   0.000016966
  11 10  0     -416.0940651652    -0.0000000068   0.000025259   0.000004091
  12 11  0     -416.0940651666    -0.0000000013   0.000010153   0.000001599
  13 12  0     -416.0940651667    -0.0000000002   0.000004272   0.000000698
  14 13  0     -416.0940651668    -0.0000000000   0.000001187   0.000000250

          -----------------
          DENSITY CONVERGED
          -----------------
     TIME TO FORM FOCK OPERATORS=       0.3 SECONDS (       0.0 SEC/ITER)
     TIME TO SOLVE SCF EQUATIONS=       0.1 SECONDS (       0.0 SEC/ITER)

 FINAL RHF ENERGY IS     -416.0940651668 AFTER  14 ITERATIONS

          ------------
          EIGENVECTORS
          ------------

                      1          2          3          4          5
                  -20.2646   -11.1197   -11.0567   -11.0499   -11.0470
                     A          A          A          A          A   
    1  C  1  S   -0.000000   0.000023  -0.026092  -0.005793   0.004131
    2  C  1  S    0.000003  -0.000004  -0.004007   0.000031   0.000123
    3  C  1  X    0.000001   0.000006  -0.002491  -0.000219  -0.000030
    4  C  1  Y   -0.000002   0.000015  -0.000387  -0.000063   0.000003
    5  C  1  Z   -0.000001   0.000001  -0.001022  -0.000204  -0.000021
    6  C  2  S   -0.000001   0.000011  -0.000489   0.000059  -0.001530
    7  C  2  S    0.000012  -0.000036   0.000324   0.000058   0.002191
    8  C  2  X   -0.000003   0.000040   0.000170   0.000039  -0.000016
    9  C  2  Y    0.000001   0.000004   0.000025   0.000048   0.001103
   10  C  2  Z    0.000010  -0.000052  -0.000140  -0.000003   0.001020
   11  C  3  S   -0.000005  -0.000234  -0.000698   0.000862  -0.305734
   12  C  3  S   -0.000002   0.000320  -0.000025   0.000065  -0.014086
   13  C  3  X    0.000028  -0.000245  -0.000071   0.000010  -0.002099
   14  C  3  Y    0.000026  -0.000009   0.000004   0.000023  -0.000065
   15  C  3  Z    0.000028  -0.000116   0.000053   0.000022  -0.000651
   16  C  4  S   -0.000024  -0.001694  -0.004287  -0.008312   0.943497
   17  C  4  S    0.000270  -0.005339  -0.000085  -0.000329   0.035157
   18  C  4  X   -0.000090  -0.000786   0.000020  -0.000061   0.000821
   19  C  4  Y    0.000275  -0.003853  -0.000044  -0.000044  -0.000399
   20  C  4  Z    0.000375   0.000792   0.000203   0.000154  -0.000241
   21  C  5  S    0.000003  -0.000284   0.003083  -0.001096   0.004049
   22  C  5  S    0.000030   0.000057  -0.006844   0.000032  -0.006616
   23  C  5  X   -0.000044  -0.000030  -0.000431  -0.000084   0.002343
   24  C  5  Y   -0.000043  -0.000037  -0.000397  -0.000099  -0.003002
   25  C  5  Z    0.000037   0.000006   0.004526   0.000068  -0.002155
   26  C  6  S    0.000003  -0.000243   0.991559   0.018870   0.004212
   27  C  6  S    0.000006  -0.000053   0.036319  -0.004974   0.000160
   28  C  6  X    0.000021   0.000003   0.001150  -0.000744   0.000128
   29  C  6  Y   -0.000026  -0.000097   0.000482  -0.003902  -0.000153
   30  C  6  Z   -0.000023  -0.000032   0.001108   0.001125  -0.000042
   31  C  7  S    0.000005  -0.000271  -0.018071   0.991816   0.008198
   32  C  7  S    0.000054   0.000108  -0.006633   0.035848   0.000225
   33  C  7  X    0.000017  -0.000029   0.000612  -0.000397   0.000086
   34  C  7  Y    0.000067  -0.000062   0.004006   0.001367   0.000032
   35  C  7  Z   -0.000033   0.000056  -0.001498   0.000920  -0.000139
   36  C  8  S   -0.000025  -0.001006  -0.000979   0.020136  -0.001141
   37  C  8  S    0.000269  -0.005677   0.000303  -0.007398   0.000014
   38  C  8  X   -0.000042   0.001567   0.000017  -0.000879   0.000043
   39  C  8  Y    0.000469   0.000261  -0.000169   0.003609   0.000044
   40  C  8  Z    0.000205  -0.003801   0.000034   0.002659   0.000024
   41  C  9  S    0.000547   0.992569   0.000254   0.000332   0.002478
   42  C  9  S   -0.007209   0.032682  -0.000002   0.000161  -0.005421
   43  C  9  X    0.001177  -0.000117  -0.000027  -0.000028   0.000634
   44  C  9  Y   -0.004906   0.000438   0.000058   0.000122   0.003813
   45  C  9  Z   -0.003922   0.000112   0.000125   0.000083  -0.001146
   46  O 10  S    0.994266   0.000160   0.000005   0.000013  -0.000018
   47  O 10  S    0.026005  -0.005798  -0.000052  -0.000116   0.000224
   48  O 10  X    0.001026  -0.000312  -0.000007  -0.000017  -0.000006
   49  O 10  Y   -0.004314   0.001307   0.000030   0.000037  -0.000209
   50  O 10  Z   -0.003457   0.001075   0.000014   0.000051   0.000064
   51  H 11  S   -0.000002   0.000002   0.000335  -0.000018  -0.000014
   52  H 12  S   -0.000002   0.000007   0.000337  -0.000976  -0.000029
   53  H 13  S   -0.000002   0.000007  -0.000001   0.000001  -0.000017
   54  H 14  S    0.000085  -0.001089   0.000005  -0.000048   0.002289
   55  H 15  S   -0.000007  -0.000036  -0.000022  -0.000016   0.002271
   56  H 16  S   -0.000178  -0.000020  -0.000094  -0.000001  -0.006664
   57  H 17  S   -0.000020  -0.000055   0.000086  -0.000084   0.000076
   58  H 18  S   -0.000015  -0.000024  -0.006942  -0.000095  -0.000142
   59  H 19  S   -0.000022  -0.000038   0.000207  -0.006826  -0.000110
   60  H 20  S   -0.000191   0.000013  -0.000034   0.000010  -0.000063

                      6          7          8          9         10
                  -11.0460   -11.0458   -11.0267   -11.0149   -11.0079
                     A          A          A          A          A   
    1  C  1  S   -0.201791   0.971037  -0.000211   0.000874  -0.002477
    2  C  1  S   -0.007264   0.035453   0.000043   0.000284  -0.007132
    3  C  1  X    0.000281  -0.001571   0.000006  -0.000065   0.002725
    4  C  1  Y   -0.000129  -0.000014   0.000029   0.000042   0.000324
    5  C  1  Z   -0.000062  -0.000156  -0.000042  -0.000061  -0.003741
    6  C  2  S    0.002298   0.003828   0.000073  -0.016877   0.991974
    7  C  2  S   -0.004921  -0.007973   0.000026  -0.001097   0.036618
    8  C  2  X    0.000686  -0.002622   0.000008  -0.000646   0.002511
    9  C  2  Y   -0.003058  -0.000921  -0.000002   0.000017   0.000393
   10  C  2  Z   -0.003535   0.002954   0.000005  -0.000287   0.000905
   11  C  3  S    0.923855   0.193344  -0.000271   0.000796  -0.002554
   12  C  3  S    0.032844   0.006998   0.000091   0.000295  -0.007149
   13  C  3  X   -0.001818  -0.000487  -0.000029  -0.000064  -0.000186
   14  C  3  Y   -0.000341  -0.000106   0.000078   0.000021   0.003478
   15  C  3  Z   -0.001194  -0.000149   0.000008  -0.000020   0.003068
   16  C  4  S    0.301038   0.058389   0.001343  -0.003238   0.000510
   17  C  4  S    0.008111   0.001551   0.000232  -0.007192   0.000039
   18  C  4  X    0.002880   0.000622   0.000032  -0.002433  -0.000034
   19  C  4  Y    0.000171   0.000026   0.000019   0.003230   0.000127
   20  C  4  Z    0.000968   0.000256   0.000061   0.002203   0.000098
   21  C  5  S    0.000701  -0.000601  -0.002703   0.991966   0.017109
   22  C  5  S   -0.001971  -0.000466  -0.000213   0.036579   0.000146
   23  C  5  X    0.000668   0.000110  -0.000024  -0.002335   0.000576
   24  C  5  Y   -0.000888  -0.000171  -0.000213   0.000311   0.000139
   25  C  5  Z   -0.000659  -0.000107   0.000071  -0.001085   0.000187
   26  C  6  S   -0.003500   0.026977   0.000633  -0.002271   0.000391
   27  C  6  S    0.000494  -0.001992   0.000394  -0.007127   0.000042
   28  C  6  X   -0.000407   0.002559   0.000093   0.000414   0.000064
   29  C  6  Y   -0.000176   0.000398   0.000097   0.000508  -0.000004
   30  C  6  Z   -0.000230   0.000941  -0.000099  -0.004550  -0.000144
   31  C  7  S    0.000604   0.005542  -0.019611   0.001153  -0.000068
   32  C  7  S    0.000012   0.000180  -0.008949   0.000136   0.000008
   33  C  7  X    0.000037  -0.000022   0.000891  -0.000045  -0.000046
   34  C  7  Y   -0.000003   0.000025  -0.003731  -0.000036   0.000016
   35  C  7  Z   -0.000031  -0.000071  -0.002731  -0.000181   0.000007
   36  C  8  S   -0.000184   0.000260   0.991965   0.002794  -0.000032
   37  C  8  S    0.000062   0.000027   0.036554   0.000038  -0.000015
   38  C  8  X   -0.000032  -0.000024   0.000379  -0.000039  -0.000003
   39  C  8  Y    0.000015   0.000001  -0.001619   0.000171   0.000004
   40  C  8  Z    0.000009  -0.000010  -0.000958  -0.000103  -0.000000
   41  C  9  S    0.001058   0.000190   0.001996   0.000354  -0.000008
   42  C  9  S   -0.001574  -0.000291  -0.005871   0.000110  -0.000015
   43  C  9  X    0.000171   0.000027  -0.001632  -0.000149  -0.000020
   44  C  9  Y    0.001160   0.000220  -0.000443   0.000063   0.000002
   45  C  9  Z   -0.000346  -0.000067   0.003832   0.000072  -0.000049
   46  O 10  S   -0.000014  -0.000002  -0.000022   0.000008  -0.000000
   47  O 10  S    0.000102   0.000017   0.000248  -0.000084   0.000007
   48  O 10  X   -0.000032  -0.000009   0.000086   0.000023   0.000008
   49  O 10  Y   -0.000087  -0.000014   0.000010   0.000040  -0.000004
   50  O 10  Z    0.000007   0.000001  -0.000206   0.000023  -0.000001
   51  H 11  S    0.001303  -0.006811  -0.000010  -0.000030   0.000098
   52  H 12  S    0.001393  -0.006824  -0.000094  -0.000065  -0.000011
   53  H 13  S    0.000034   0.000064  -0.000004   0.000130  -0.007015
   54  H 14  S   -0.006435  -0.001391  -0.000217  -0.000047  -0.000003
   55  H 15  S   -0.006384  -0.001449  -0.000019  -0.000042   0.000096
   56  H 16  S   -0.001966  -0.000400  -0.000098   0.000108  -0.000035
   57  H 17  S    0.000027   0.000006  -0.000042  -0.006929  -0.000105
   58  H 18  S   -0.000067  -0.000065  -0.000092   0.000097  -0.000047
   59  H 19  S   -0.000033   0.000002   0.000270  -0.000106  -0.000002
   60  H 20  S   -0.000023  -0.000008  -0.006866  -0.000079   0.000001

                     11         12         13         14         15
                   -1.3155    -1.0943    -1.0174    -0.9712    -0.9380
                     A          A          A          A          A   
    1  C  1  S   -0.000757  -0.059886  -0.097075   0.080426  -0.074487
    2  C  1  S    0.001835   0.159023   0.262021  -0.222281   0.213779
    3  C  1  X    0.000126   0.001559  -0.055812   0.033539   0.031583
    4  C  1  Y    0.000269   0.007937  -0.003867  -0.003809  -0.003618
    5  C  1  Z    0.000481   0.029308   0.055116  -0.018036  -0.009216
    6  C  2  S   -0.001091  -0.060009  -0.141041   0.073379   0.017276
    7  C  2  S    0.002400   0.149421   0.365806  -0.194658  -0.046447
    8  C  2  X    0.000562   0.029246   0.042863  -0.025763   0.033188
    9  C  2  Y    0.000787   0.021412   0.043916  -0.007924  -0.042486
   10  C  2  Z    0.000558   0.000241   0.006631   0.030720  -0.078703
   11  C  3  S   -0.003427  -0.054324  -0.113299   0.017199   0.095793
   12  C  3  S    0.008315   0.144154   0.306878  -0.043722  -0.272098
   13  C  3  X    0.002371   0.018478  -0.001363   0.027652  -0.001632
   14  C  3  Y    0.001671  -0.016122  -0.050598   0.028792  -0.004474
   15  C  3  Z    0.000380  -0.018025  -0.052543   0.043971  -0.003088
   16  C  4  S   -0.021297  -0.088134  -0.014367  -0.130209   0.075262
   17  C  4  S    0.053378   0.231658   0.041721   0.361434  -0.216993
   18  C  4  X    0.005545   0.027639  -0.031207   0.054312   0.023206
   19  C  4  Y    0.025609  -0.020085  -0.014917  -0.043647  -0.055544
   20  C  4  Z   -0.006344  -0.043590   0.002018  -0.020021  -0.005166
   21  C  5  S   -0.005507  -0.106488   0.005167  -0.125098  -0.055293
   22  C  5  S    0.012533   0.267344  -0.013487   0.334402   0.150571
   23  C  5  X   -0.002663  -0.030835  -0.018412  -0.048038   0.029482
   24  C  5  Y    0.005101   0.042713  -0.008357   0.045269  -0.040892
   25  C  5  Z    0.000947  -0.039938   0.018195   0.029191  -0.106579
   26  C  6  S   -0.003183  -0.112347   0.030850  -0.014276  -0.131482
   27  C  6  S    0.007593   0.296667  -0.083063   0.035265   0.373998
   28  C  6  X   -0.000204  -0.007050  -0.033872   0.002444   0.004598
   29  C  6  Y    0.002189   0.036224  -0.047770  -0.044048  -0.025339
   30  C  6  Z    0.001838   0.041331   0.002342   0.097135   0.018185
   31  C  7  S   -0.005952  -0.101192   0.101301   0.099047  -0.000109
   32  C  7  S    0.014143   0.257638  -0.266622  -0.266698   0.004081
   33  C  7  X   -0.001912  -0.023016   0.010357   0.012487   0.003565
   34  C  7  Y    0.004026  -0.005130  -0.044306  -0.065793  -0.129758
   35  C  7  Z    0.005090   0.048930  -0.044651  -0.018661  -0.030108
   36  C  8  S   -0.021551  -0.079481   0.099678   0.094944   0.091912
   37  C  8  S    0.052407   0.199439  -0.258753  -0.251856  -0.248857
   38  C  8  X   -0.010716   0.001515  -0.011160  -0.016628   0.012035
   39  C  8  Y   -0.003922  -0.060227   0.057210   0.041902   0.011823
   40  C  8  Z    0.025057  -0.015057   0.028180   0.055574  -0.022587
   41  C  9  S   -0.127528  -0.035219   0.023051  -0.013564   0.067156
   42  C  9  S    0.295194   0.097752  -0.066292   0.038468  -0.198191
   43  C  9  X   -0.029171   0.013747  -0.030602  -0.025678  -0.014234
   44  C  9  Y    0.117918  -0.071891   0.006087  -0.084202   0.088416
   45  C  9  Z    0.094390  -0.053545   0.059178   0.055318   0.077021
   46  O 10  S   -0.214566   0.037874  -0.015677   0.010190  -0.047813
   47  O 10  S    0.749543  -0.141301   0.060153  -0.039936   0.190876
   48  O 10  X    0.030017  -0.001915  -0.006114  -0.006712  -0.000816
   49  O 10  Y   -0.127784   0.004359  -0.005034  -0.019107   0.018016
   50  O 10  Z   -0.102521   0.004918   0.007961   0.016501   0.014578
   51  H 11  S    0.000195   0.030111   0.057049  -0.056361   0.068373
   52  H 12  S    0.000435   0.038776   0.055941  -0.065920   0.062301
   53  H 13  S    0.000317   0.029502   0.083821  -0.047260  -0.011570
   54  H 14  S    0.003561   0.033609   0.070840  -0.010496  -0.085074
   55  H 15  S    0.001358   0.026533   0.067930  -0.005315  -0.080750
   56  H 16  S    0.008753   0.040211   0.014668   0.093391  -0.063360
   57  H 17  S    0.001499   0.049753   0.001820   0.085951   0.045455
   58  H 18  S    0.000806   0.055390  -0.016450   0.003854   0.117724
   59  H 19  S    0.001596   0.048221  -0.060489  -0.074530   0.007488
   60  H 20  S    0.008695   0.034002  -0.057476  -0.068388  -0.068097

                     16         17         18         19         20
                   -0.8527    -0.7758    -0.7541    -0.7087    -0.6569
                     A          A          A          A          A   
    1  C  1  S   -0.130065   0.038357  -0.006612   0.067415   0.005545
    2  C  1  S    0.378840  -0.119257   0.025242  -0.216295  -0.016744
    3  C  1  X   -0.045061  -0.042679   0.061367  -0.059504   0.042529
    4  C  1  Y   -0.022185  -0.037410   0.017998  -0.060211  -0.140152
    5  C  1  Z   -0.032027   0.088189  -0.039152   0.173165  -0.043214
    6  C  2  S   -0.001246  -0.061013   0.046703  -0.113907  -0.006837
    7  C  2  S    0.003518   0.182120  -0.141400   0.352187   0.024339
    8  C  2  X    0.067861  -0.009784  -0.003543  -0.013095  -0.037119
    9  C  2  Y   -0.073874  -0.031470   0.052506  -0.132579  -0.130258
   10  C  2  Z   -0.159768   0.033057   0.003598   0.055809   0.048670
   11  C  3  S    0.129136   0.014861  -0.038417   0.066062   0.002739
   12  C  3  S   -0.376174  -0.050380   0.118773  -0.212341  -0.007806
   13  C  3  X    0.055765  -0.018496  -0.022238   0.038851  -0.040731
   14  C  3  Y    0.005454  -0.083418   0.089145  -0.166575  -0.049712
   15  C  3  Z   -0.002851  -0.055311   0.009488  -0.074089   0.125632
   16  C  4  S   -0.062812   0.079583   0.045154  -0.015144  -0.028325
   17  C  4  S    0.182803  -0.247421  -0.133680   0.048793   0.097452
   18  C  4  X    0.060111   0.048804  -0.039958   0.036739  -0.067666
   19  C  4  Y    0.042542  -0.109520   0.173539   0.125074   0.017236
   20  C  4  Z    0.009869  -0.086495  -0.067722  -0.006174   0.216150
   21  C  5  S    0.006465  -0.098141   0.054210   0.048549   0.027110
   22  C  5  S   -0.018628   0.291565  -0.164702  -0.149029  -0.082695
   23  C  5  X   -0.032514   0.019151   0.054568   0.029413   0.043263
   24  C  5  Y    0.038676  -0.084660   0.007550   0.087606  -0.139233
   25  C  5  Z    0.079929  -0.044950  -0.159203  -0.051208   0.056865
   26  C  6  S    0.072503   0.009550  -0.083706  -0.031654  -0.033418
   27  C  6  S   -0.211276  -0.034504   0.259034   0.099198   0.111983
   28  C  6  X   -0.065797  -0.015501   0.024078   0.059879   0.115309
   29  C  6  Y   -0.022549  -0.094641  -0.059703   0.066021  -0.214248
   30  C  6  Z   -0.002902   0.173929  -0.020585  -0.033585  -0.161730
   31  C  7  S    0.055423   0.076592   0.085804  -0.021760   0.025865
   32  C  7  S   -0.161295  -0.233344  -0.254542   0.069642  -0.079195
   33  C  7  X   -0.018431  -0.013087  -0.041887   0.017107   0.082120
   34  C  7  Y    0.064429   0.104422  -0.137593  -0.108704   0.007787
   35  C  7  Z    0.022549   0.092990   0.077626   0.015483  -0.139126
   36  C  8  S   -0.038573  -0.086254  -0.005678   0.042381  -0.032393
   37  C  8  S    0.111484   0.255942   0.028712  -0.127999   0.113666
   38  C  8  X   -0.027827  -0.009399  -0.092736  -0.016077   0.034035
   39  C  8  Y    0.025433   0.092370   0.048926  -0.086654   0.217668
   40  C  8  Z    0.067248   0.059308   0.214658   0.073728  -0.005305
   41  C  9  S   -0.065327   0.002707  -0.105837  -0.054172  -0.013871
   42  C  9  S    0.199688  -0.009036   0.338936   0.176599   0.044210
   43  C  9  X    0.028126   0.082725   0.022288   0.006978   0.007723
   44  C  9  Y   -0.077004   0.133696  -0.037703  -0.098402   0.050038
   45  C  9  Z   -0.049748  -0.141529  -0.125923   0.037069   0.029702
   46  O 10  S    0.037872  -0.003309   0.058201   0.024430   0.028793
   47  O 10  S   -0.157503   0.014647  -0.255834  -0.109923  -0.137659
   48  O 10  X    0.012820   0.040222   0.021590   0.009618   0.026441
   49  O 10  Y   -0.031064   0.070767  -0.061526  -0.083448  -0.058785
   50  O 10  Z   -0.021301  -0.068335  -0.099500   0.003075  -0.053772
   51  H 11  S    0.141790  -0.057401   0.018653  -0.120681   0.100881
   52  H 12  S    0.120653  -0.096743   0.025954  -0.177594  -0.081388
   53  H 13  S    0.001044   0.092717  -0.082251   0.232569   0.113286
   54  H 14  S   -0.117734  -0.053354   0.103430  -0.167976  -0.070843
   55  H 15  S   -0.140796  -0.033700   0.046994  -0.121388   0.095352
   56  H 16  S    0.055527  -0.135596  -0.101763  -0.001609   0.195194
   57  H 17  S   -0.009170   0.145673  -0.103217  -0.121392   0.072674
   58  H 18  S   -0.078063  -0.030935   0.137676   0.037869   0.258154
   59  H 19  S   -0.065510  -0.135211  -0.160828   0.015346   0.077824
   60  H 20  S    0.036229   0.135611  -0.013827  -0.121413   0.192801

                     21         22         23         24         25
                   -0.6044    -0.5931    -0.5874    -0.5544    -0.5396
                     A          A          A          A          A   
    1  C  1  S   -0.014304  -0.009361  -0.000336   0.000487   0.005159
    2  C  1  S    0.051239   0.027222  -0.003400  -0.001231  -0.025422
    3  C  1  X    0.067521  -0.037132  -0.067064  -0.021801  -0.086038
    4  C  1  Y   -0.214574  -0.125991  -0.098502   0.244509  -0.190540
    5  C  1  Z   -0.141499  -0.113508   0.134607  -0.051309   0.134221
    6  C  2  S    0.025519   0.007322  -0.006298  -0.015900  -0.008165
    7  C  2  S   -0.079180  -0.020514   0.019521   0.052627   0.026791
    8  C  2  X   -0.068604  -0.080537   0.073208  -0.062965   0.067417
    9  C  2  Y   -0.210698  -0.109421   0.000377   0.116742  -0.042696
   10  C  2  Z    0.059285  -0.020717  -0.132224   0.054019  -0.169446
   11  C  3  S   -0.012158  -0.010689   0.006198   0.004959   0.001780
   12  C  3  S    0.044256   0.034304  -0.017723  -0.026197  -0.001943
   13  C  3  X   -0.107371  -0.111831   0.059348  -0.065798   0.056258
   14  C  3  Y   -0.030115   0.080825   0.178436  -0.152108   0.254037
   15  C  3  Z    0.261794   0.073809  -0.082697  -0.031825  -0.102453
   16  C  4  S   -0.003426   0.055956   0.007847   0.020192  -0.010152
   17  C  4  S    0.008995  -0.190020  -0.022445  -0.070380   0.034562
   18  C  4  X   -0.009026   0.058474  -0.080187  -0.028217  -0.023808
   19  C  4  Y   -0.013890   0.105228   0.221876   0.050608  -0.108392
   20  C  4  Z    0.004412  -0.092982   0.030714   0.269104   0.098595
   21  C  5  S    0.011736  -0.056429   0.003967   0.010021   0.017183
   22  C  5  S   -0.041623   0.192172  -0.012177  -0.028407  -0.056151
   23  C  5  X   -0.005755   0.095536   0.087151   0.131668   0.003147
   24  C  5  Y    0.096540  -0.187778  -0.110595  -0.235681  -0.078473
   25  C  5  Z   -0.075947   0.070370  -0.174970   0.080555   0.184483
   26  C  6  S   -0.010033   0.054700  -0.011284  -0.001605   0.007242
   27  C  6  S    0.033281  -0.191752   0.034800   0.007530  -0.021613
   28  C  6  X   -0.029802   0.032690   0.013898   0.067276   0.104065
   29  C  6  Y    0.051978   0.007589  -0.180953  -0.016475   0.008536
   30  C  6  Z    0.075703   0.056998   0.146760  -0.067206  -0.181313
   31  C  7  S    0.003802  -0.045430   0.010013  -0.006495  -0.018335
   32  C  7  S   -0.024728   0.151205  -0.052427   0.011331   0.061654
   33  C  7  X   -0.080565   0.073210  -0.000753  -0.104990  -0.011768
   34  C  7  Y    0.056898   0.039944   0.242159   0.053652  -0.070329
   35  C  7  Z    0.255288  -0.126774   0.095977   0.254216   0.088472
   36  C  8  S   -0.021026   0.045656  -0.022551  -0.020235  -0.004376
   37  C  8  S    0.055780  -0.151320   0.062722   0.058551   0.013139
   38  C  8  X    0.025990  -0.030695   0.089110  -0.004307  -0.071168
   39  C  8  Y   -0.168699  -0.165665  -0.064216  -0.239618  -0.161836
   40  C  8  Z   -0.043017   0.068009  -0.227065  -0.000495   0.140563
   41  C  9  S    0.043023  -0.080025   0.012478  -0.009043   0.022789
   42  C  9  S   -0.147692   0.279307  -0.040262   0.029090  -0.077422
   43  C  9  X    0.022939  -0.019077  -0.155080   0.053677   0.051333
   44  C  9  Y   -0.063050  -0.000542  -0.190330   0.007834   0.048312
   45  C  9  Z   -0.018340   0.042631   0.196898   0.044677  -0.244629
   46  O 10  S   -0.041204   0.049683  -0.005447   0.009099  -0.034411
   47  O 10  S    0.202832  -0.244797   0.026619  -0.046532   0.178990
   48  O 10  X   -0.032177   0.026171  -0.140047   0.032569  -0.005005
   49  O 10  Y    0.111429  -0.206284  -0.161159  -0.087214   0.301068
   50  O 10  Z    0.134408  -0.119746   0.206396   0.035351  -0.034488
   51  H 11  S    0.227985   0.144103  -0.000665  -0.148667   0.056537
   52  H 12  S   -0.071806  -0.018539  -0.130277   0.197875  -0.207916
   53  H 13  S    0.139846   0.081298  -0.039013  -0.035147  -0.012530
   54  H 14  S   -0.077971   0.067038   0.151175  -0.117424   0.235397
   55  H 15  S    0.238275   0.098837  -0.109575   0.022483  -0.131687
   56  H 16  S    0.019895  -0.176389   0.001074   0.191209   0.111957
   57  H 17  S   -0.108185   0.259008   0.023956   0.208412   0.101085
   58  H 18  S   -0.051439  -0.096135   0.063885   0.063644   0.112725
   59  H 19  S   -0.213209   0.193988  -0.075051  -0.223379  -0.051150
   60  H 20  S   -0.075662  -0.218112   0.049570  -0.160026  -0.169613

                     26         27         28         29         30
                   -0.5170    -0.5079    -0.4880    -0.4776    -0.4469
                     A          A          A          A          A   
    1  C  1  S    0.009285   0.009083  -0.008183  -0.029614   0.009850
    2  C  1  S   -0.036760  -0.020156   0.032243   0.103463  -0.036840
    3  C  1  X   -0.022713   0.228715   0.074645  -0.113933   0.035314
    4  C  1  Y    0.023753  -0.005035  -0.257566   0.043217  -0.075339
    5  C  1  Z   -0.217368  -0.030900  -0.008557   0.256818  -0.205435
    6  C  2  S   -0.013688   0.015910   0.008850   0.005979  -0.003206
    7  C  2  S    0.048556  -0.056860  -0.037352  -0.026247   0.011803
    8  C  2  X   -0.167088   0.077416   0.078565   0.193810  -0.103217
    9  C  2  Y    0.097022  -0.005912   0.285571   0.098854   0.085653
   10  C  2  Z    0.102109   0.235028   0.091261  -0.196768   0.160228
   11  C  3  S   -0.009405  -0.000605  -0.032611  -0.001445  -0.005624
   12  C  3  S    0.023472   0.009907   0.113549   0.009705   0.018124
   13  C  3  X   -0.078903   0.209547   0.056455  -0.042711   0.070548
   14  C  3  Y   -0.064285  -0.164364  -0.193907  -0.131216  -0.074690
   15  C  3  Z   -0.176424  -0.010154  -0.157053   0.276041  -0.190992
   16  C  4  S   -0.009594  -0.008711  -0.001911   0.001236   0.000281
   17  C  4  S    0.026843   0.042945   0.006909   0.002635   0.007099
   18  C  4  X    0.217852  -0.172781   0.044666  -0.045076  -0.147737
   19  C  4  Y    0.098565   0.014363  -0.130844   0.092833   0.125248
   20  C  4  Z   -0.149788  -0.175124  -0.015812  -0.008541   0.249822
   21  C  5  S   -0.010554   0.020035   0.006995   0.006896  -0.001667
   22  C  5  S    0.039017  -0.070313  -0.027140  -0.024137   0.005168
   23  C  5  X    0.083414  -0.169231  -0.069971   0.018819   0.142689
   24  C  5  Y    0.087867  -0.166398   0.096800  -0.054663  -0.075965
   25  C  5  Z    0.126751   0.047913   0.026865  -0.106846  -0.322014
   26  C  6  S    0.019014   0.012061   0.005514   0.010877  -0.004881
   27  C  6  S   -0.074683  -0.034145  -0.017146  -0.042279   0.006321
   28  C  6  X    0.191779  -0.160637   0.005233  -0.017520  -0.021989
   29  C  6  Y   -0.141192  -0.173672  -0.104308  -0.152502   0.026462
   30  C  6  Z   -0.105519  -0.145261  -0.025492   0.086998   0.337467
   31  C  7  S    0.021655   0.001974  -0.011250   0.004107  -0.002177
   32  C  7  S   -0.079054  -0.013730   0.026570  -0.016111   0.014811
   33  C  7  X    0.109027  -0.135684   0.072150   0.122481   0.089695
   34  C  7  Y    0.047055   0.133020   0.140457   0.099714   0.007897
   35  C  7  Z   -0.044628  -0.083600   0.095410  -0.141465  -0.120759
   36  C  8  S   -0.009462  -0.005672   0.001261   0.004324   0.011409
   37  C  8  S    0.035726   0.014764  -0.016044  -0.015943  -0.039963
   38  C  8  X    0.070083  -0.167238   0.126428   0.013231  -0.037689
   39  C  8  Y    0.010297  -0.124283  -0.152893  -0.075863   0.010224
   40  C  8  Z    0.047673  -0.040391  -0.032576   0.138482   0.119358
   41  C  9  S    0.007904  -0.011145  -0.009355  -0.015222   0.000811
   42  C  9  S   -0.020287   0.045440   0.028203   0.061242  -0.001000
   43  C  9  X    0.144428  -0.205911   0.152272   0.164248   0.017417
   44  C  9  Y   -0.285751  -0.079517   0.152926  -0.129143  -0.003268
   45  C  9  Z   -0.035523  -0.156666   0.149383  -0.125969  -0.165277
   46  O 10  S   -0.051591  -0.017415   0.031107  -0.026352  -0.013318
   47  O 10  S    0.275417   0.093969  -0.171100   0.147274   0.077272
   48  O 10  X    0.000687  -0.207872   0.225127   0.087604  -0.001384
   49  O 10  Y    0.190082   0.093894  -0.180904   0.224525   0.261790
   50  O 10  Z    0.338786   0.010927  -0.147515   0.118571  -0.063668
   51  H 11  S    0.085077   0.033590   0.239585  -0.138914   0.169893
   52  H 12  S    0.097433   0.006021  -0.214743  -0.052857   0.022299
   53  H 13  S    0.009341   0.031978  -0.265380  -0.214217   0.004223
   54  H 14  S    0.014496  -0.119039  -0.095779  -0.227583   0.010721
   55  H 15  S   -0.081501  -0.092800  -0.072696   0.275885  -0.179432
   56  H 16  S   -0.162685  -0.120256  -0.008863  -0.003790   0.260632
   57  H 17  S    0.004600   0.104562  -0.100244  -0.007932  -0.047795
   58  H 18  S    0.201106   0.093892   0.085034   0.026938  -0.201738
   59  H 19  S    0.044748   0.033388  -0.028865   0.182088   0.168540
   60  H 20  S    0.028060  -0.118651  -0.113711  -0.116503  -0.057041

                     31         32         33         34         35
                   -0.4433    -0.4186    -0.3648    -0.3155    -0.2827
                     A          A          A          A          A   
    1  C  1  S    0.008475   0.002758  -0.002532   0.000068  -0.027073
    2  C  1  S   -0.036275   0.004630  -0.006180  -0.000913   0.128616
    3  C  1  X   -0.069404   0.251565  -0.122293  -0.003874   0.316114
    4  C  1  Y    0.189112   0.078664   0.081405   0.026837   0.056651
    5  C  1  Z   -0.075879   0.054483  -0.125670  -0.023955   0.152207
    6  C  2  S   -0.003266   0.020105   0.012894   0.004060   0.006632
    7  C  2  S    0.017037  -0.071226  -0.049047  -0.013548  -0.027456
    8  C  2  X   -0.099345   0.061980   0.109535  -0.010884   0.054031
    9  C  2  Y   -0.145977  -0.192793  -0.096091  -0.021367  -0.008728
   10  C  2  Z   -0.035703   0.128224   0.035889   0.001974   0.108951
   11  C  3  S    0.016467  -0.003679  -0.013790   0.002323   0.012546
   12  C  3  S   -0.058560   0.014352   0.076371  -0.010713  -0.069902
   13  C  3  X   -0.023319   0.079054   0.356895  -0.000353  -0.218207
   14  C  3  Y    0.130323   0.186730  -0.001499   0.030454   0.025731
   15  C  3  Z    0.027425  -0.030628   0.121669  -0.012222  -0.069546
   16  C  4  S   -0.025386   0.008778  -0.017296   0.030990   0.008866
   17  C  4  S    0.092593  -0.029788   0.092326  -0.141358  -0.050918
   18  C  4  X    0.039728  -0.038852  -0.310374  -0.062630   0.236419
   19  C  4  Y   -0.137991   0.024349  -0.001797  -0.317906   0.098881
   20  C  4  Z   -0.026388   0.027301  -0.179719   0.087086   0.096451
   21  C  5  S   -0.005262   0.016544   0.012179  -0.006334   0.003752
   22  C  5  S    0.011200  -0.061742  -0.043337   0.019834  -0.011341
   23  C  5  X   -0.057306  -0.110516  -0.018873  -0.137670   0.003170
   24  C  5  Y    0.205928  -0.113430  -0.095615   0.055241   0.017120
   25  C  5  Z   -0.092574  -0.045163  -0.005132  -0.046713   0.077700
   26  C  6  S    0.003124  -0.007906   0.018749   0.001574  -0.005757
   27  C  6  S   -0.022690   0.042359  -0.082657  -0.009807   0.047410
   28  C  6  X    0.083809  -0.259371   0.239396  -0.013351  -0.240815
   29  C  6  Y   -0.316998  -0.048436   0.087930  -0.071576  -0.035943
   30  C  6  Z    0.092141  -0.030835   0.006740   0.065609  -0.068992
   31  C  7  S    0.011272   0.004117  -0.010063   0.011984   0.005108
   32  C  7  S   -0.058415  -0.013363   0.039858  -0.043431  -0.020602
   33  C  7  X    0.038215  -0.015542   0.344544   0.174916   0.349753
   34  C  7  Y    0.328606   0.037533  -0.087854  -0.007205   0.033542
   35  C  7  Z   -0.041216  -0.042940   0.210664  -0.032773   0.128103
   36  C  8  S    0.004151  -0.000227   0.005868  -0.036782   0.007075
   37  C  8  S   -0.033391   0.000397  -0.024425   0.164177  -0.034138
   38  C  8  X   -0.000940   0.088004   0.356748   0.008187   0.414608
   39  C  8  Y   -0.197673  -0.023744   0.000923  -0.065407  -0.029773
   40  C  8  Z   -0.081752   0.059042   0.092407   0.325970   0.112558
   41  C  9  S    0.003429  -0.002235   0.008119  -0.000919  -0.008842
   42  C  9  S   -0.014585   0.011774  -0.029985   0.001839   0.037411
   43  C  9  X   -0.024289   0.407071  -0.011941   0.022563  -0.150792
   44  C  9  Y    0.168489  -0.051909   0.016997   0.125709  -0.046136
   45  C  9  Z   -0.042281   0.133030   0.037466  -0.149427  -0.041678
   46  O 10  S    0.012025  -0.002943   0.001024   0.000348   0.000144
   47  O 10  S   -0.070390   0.017765  -0.008567  -0.001798   0.001874
   48  O 10  X    0.072167   0.444720   0.040736  -0.341556  -0.316443
   49  O 10  Y    0.075673  -0.000531   0.038191  -0.484676   0.145891
   50  O 10  Z   -0.313358   0.202570  -0.085507   0.501107  -0.235273
   51  H 11  S   -0.138923  -0.084792  -0.003460  -0.013376  -0.075805
   52  H 12  S    0.194927   0.047990   0.132898   0.032634  -0.025029
   53  H 13  S    0.163967   0.189943   0.063793   0.023160   0.028262
   54  H 14  S    0.094248   0.176132  -0.049918   0.048542   0.061976
   55  H 15  S   -0.015200  -0.094428  -0.079897  -0.020444   0.044650
   56  H 16  S    0.030962   0.015418  -0.118894   0.109650   0.033413
   57  H 17  S   -0.242162   0.044541   0.078859  -0.112489   0.019213
   58  H 18  S    0.223102  -0.074997   0.019956   0.008978  -0.083298
   59  H 19  S    0.068776   0.033197  -0.067005   0.115213   0.004177
   60  H 20  S   -0.189068  -0.025770   0.040892  -0.120357   0.004914

                     36         37         38         39         40
                   -0.2111     0.1938     0.2214     0.3788     0.3918
                     A          A          A          A          A   
    1  C  1  S   -0.028099  -0.011091  -0.038275   0.029605  -0.040168
    2  C  1  S    0.104194   0.080289   0.188576  -0.128494   0.204214
    3  C  1  X    0.182790   0.231227   0.281678  -0.316692   0.408965
    4  C  1  Y    0.023786   0.022347   0.045615   0.032328   0.046991
    5  C  1  Z    0.105053   0.050934   0.124569  -0.232321   0.141740
    6  C  2  S    0.025039  -0.022981  -0.002991  -0.002541  -0.005584
    7  C  2  S   -0.120563   0.127347   0.017103   0.018983   0.043034
    8  C  2  X    0.486437  -0.505485  -0.089489  -0.096885  -0.227954
    9  C  2  Y   -0.122178   0.082521   0.032368   0.008384   0.043033
   10  C  2  Z    0.258972  -0.262555   0.007624  -0.066674  -0.116190
   11  C  3  S   -0.030878  -0.017616   0.032945  -0.051267  -0.008235
   12  C  3  S    0.117237   0.112332  -0.154872   0.246040   0.055705
   13  C  3  X    0.238301   0.255620  -0.218900   0.547317   0.035484
   14  C  3  Y   -0.006293   0.046873  -0.006880  -0.036570   0.097418
   15  C  3  Z    0.070405   0.125177  -0.056324   0.209572   0.032434
   16  C  4  S    0.033848  -0.014898  -0.015588   0.052947  -0.024019
   17  C  4  S   -0.134275   0.094851   0.060706  -0.254534   0.138125
   18  C  4  X    0.196118  -0.262960  -0.143623   0.499134  -0.100848
   19  C  4  Y    0.006544   0.003209  -0.020687   0.101245  -0.066398
   20  C  4  Z    0.110407  -0.075745  -0.064018   0.221626  -0.042248
   21  C  5  S   -0.024974  -0.022753  -0.002317   0.007624   0.020288
   22  C  5  S    0.119205   0.126252   0.011433  -0.042472  -0.111654
   23  C  5  X    0.506973   0.575082   0.033106  -0.059206  -0.075359
   24  C  5  Y    0.218876   0.196784   0.039619  -0.009056  -0.083257
   25  C  5  Z    0.120958   0.156594   0.071741   0.056005  -0.049308
   26  C  6  S    0.031002  -0.016828   0.010603  -0.055979   0.021653
   27  C  6  S   -0.123223   0.102645  -0.029496   0.286449  -0.092073
   28  C  6  X    0.238642  -0.256014   0.107297  -0.454058   0.309879
   29  C  6  Y    0.024207  -0.031854   0.022575  -0.105736   0.037096
   30  C  6  Z    0.069096  -0.139697   0.022467  -0.106777   0.095388
   31  C  7  S    0.009347   0.017736   0.004952   0.000443  -0.000833
   32  C  7  S   -0.038655  -0.085123  -0.022736  -0.003514   0.007088
   33  C  7  X   -0.048604  -0.090435   0.512670   0.427830   0.290052
   34  C  7  Y    0.049536   0.107730   0.003280  -0.017290  -0.014411
   35  C  7  Z   -0.045453  -0.073074   0.193614   0.165959   0.105100
   36  C  8  S   -0.004566  -0.008431  -0.001036  -0.002273  -0.002047
   37  C  8  S    0.020373   0.037560   0.004787   0.013330   0.011553
   38  C  8  X   -0.145833   0.174547  -0.354460  -0.331454  -0.491752
   39  C  8  Y   -0.000274  -0.020440   0.026129   0.026695   0.039681
   40  C  8  Z   -0.024131   0.094854  -0.152797  -0.145272  -0.205380
   41  C  9  S    0.009395   0.019902  -0.001464  -0.001258   0.000258
   42  C  9  S   -0.040025  -0.095779   0.005538   0.009794  -0.000710
   43  C  9  X    0.016167   0.007846  -0.436973  -0.006189   0.597523
   44  C  9  Y    0.063610   0.115527   0.033663   0.010777  -0.051436
   45  C  9  Z   -0.026742  -0.058236  -0.183609   0.001449   0.242416
   46  O 10  S   -0.000157  -0.002397  -0.000366   0.001600  -0.000497
   47  O 10  S   -0.001110   0.010692   0.002556  -0.010798   0.002716
   48  O 10  X   -0.045432   0.005609   0.508147   0.001700  -0.426051
   49  O 10  Y   -0.065035  -0.066134  -0.045273   0.014096   0.032729
   50  O 10  Z    0.044620   0.040754   0.204008   0.010903  -0.172948
   51  H 11  S   -0.002647  -0.057375  -0.044736  -0.017711  -0.034818
   52  H 12  S    0.077250  -0.150148  -0.028748  -0.084170  -0.043769
   53  H 13  S    0.052632  -0.020302  -0.000699   0.000078   0.013964
   54  H 14  S    0.070485  -0.142414  -0.009466   0.019767  -0.080443
   55  H 15  S   -0.001703  -0.074783   0.025164  -0.010459  -0.038174
   56  H 16  S    0.007954  -0.066801   0.021980  -0.009106  -0.093619
   57  H 17  S   -0.063407  -0.024128  -0.002713   0.003729   0.033284
   58  H 18  S    0.000884  -0.072553  -0.058733  -0.074130  -0.075617
   59  H 19  S    0.024623   0.034493   0.000912   0.003032  -0.018030
   60  H 20  S   -0.025947  -0.047962  -0.013186  -0.017748  -0.011140

                     41         42         43         44         45
                    0.5301     0.5708     0.5866     0.6194     0.6259
                     A          A          A          A          A   
    1  C  1  S   -0.013763  -0.023529   0.000762  -0.006156   0.036281
    2  C  1  S    0.054533   0.152366  -0.004104   0.041535  -0.227634
    3  C  1  X    0.475759  -0.040247  -0.008145  -0.050660  -0.036056
    4  C  1  Y    0.049268  -0.260102   0.208045   0.078547   0.394972
    5  C  1  Z    0.156850  -0.051550  -0.061115   0.003335   0.018990
    6  C  2  S   -0.034094  -0.020549   0.011658   0.002741   0.045181
    7  C  2  S    0.212858   0.127527  -0.073271  -0.019587  -0.286007
    8  C  2  X   -0.307873  -0.063975   0.057781  -0.037444   0.178799
    9  C  2  Y    0.103933  -0.232119   0.154434   0.003700   0.441113
   10  C  2  Z   -0.171948   0.078487  -0.052674   0.023921  -0.132135
   11  C  3  S   -0.014485  -0.012421   0.023703   0.027307   0.030265
   12  C  3  S    0.058143   0.081145  -0.151941  -0.170033  -0.189359
   13  C  3  X    0.465358  -0.105436   0.111827   0.044628   0.099626
   14  C  3  Y    0.059254  -0.209843   0.055925  -0.140228   0.270699
   15  C  3  Z    0.216203   0.175310  -0.099708   0.050980  -0.295260
   16  C  4  S    0.046173   0.000987   0.048480   0.106273  -0.009773
   17  C  4  S   -0.243097   0.016639  -0.294782  -0.622122   0.071383
   18  C  4  X    0.491804  -0.088017   0.022046  -0.220210  -0.097805
   19  C  4  Y   -0.052682  -0.338321  -0.060386  -0.534162  -0.172862
   20  C  4  Z    0.186808   0.258947  -0.166261   0.018666   0.157925
   21  C  5  S    0.010930  -0.045145   0.018471   0.004096  -0.051744
   22  C  5  S   -0.081790   0.282377  -0.118540  -0.028459   0.325608
   23  C  5  X   -0.341213   0.074591  -0.066548   0.089145   0.105281
   24  C  5  Y   -0.151942  -0.296259   0.128587   0.047092  -0.278969
   25  C  5  Z   -0.058862   0.125936  -0.116324   0.172263   0.131857
   26  C  6  S    0.042607  -0.052087  -0.066866  -0.013266   0.007600
   27  C  6  S   -0.223951   0.328644   0.387021   0.074348  -0.030781
   28  C  6  X    0.454429   0.167299   0.152172  -0.121060  -0.014796
   29  C  6  Y    0.011134  -0.268820   0.429659   0.163876  -0.345119
   30  C  6  Z    0.271933  -0.141562  -0.193011   0.122812  -0.032868
   31  C  7  S   -0.018328  -0.050735   0.024521   0.054619  -0.052383
   32  C  7  S    0.105449   0.307764  -0.132994  -0.363466   0.313937
   33  C  7  X   -0.276864   0.069104   0.137763  -0.066164   0.006316
   34  C  7  Y   -0.063256  -0.025338   0.433674   0.061647  -0.202976
   35  C  7  Z   -0.067514  -0.268850  -0.406157   0.256771  -0.036897
   36  C  8  S    0.015645   0.013167   0.024479   0.107371   0.001483
   37  C  8  S   -0.091561  -0.055631  -0.126879  -0.661601  -0.003136
   38  C  8  X    0.234589   0.118799   0.241710   0.007816  -0.036591
   39  C  8  Y   -0.038108   0.096882   0.259941  -0.361283  -0.049120
   40  C  8  Z    0.105715  -0.206126  -0.475691  -0.180567   0.059906
   41  C  9  S   -0.020812  -0.091781  -0.093891  -0.123736  -0.019388
   42  C  9  S    0.119804   0.540288   0.554454   0.726572   0.111860
   43  C  9  X   -0.295642  -0.010976   0.147085   0.056269  -0.059922
   44  C  9  Y   -0.059692  -0.150727   0.068274  -0.460640  -0.126998
   45  C  9  Z   -0.075138  -0.017618  -0.343735  -0.041365   0.106509
   46  O 10  S    0.003517   0.018697   0.014204   0.006517   0.003855
   47  O 10  S   -0.021157  -0.116830  -0.084905  -0.025286  -0.025044
   48  O 10  X    0.150998  -0.015850  -0.059189  -0.011270   0.010397
   49  O 10  Y    0.029834   0.148605   0.030765   0.086566   0.061537
   50  O 10  Z    0.058972   0.088472   0.147111  -0.040068  -0.013411
   51  H 11  S    0.074950  -0.318842   0.157823   0.046071   0.459203
   52  H 12  S    0.000420   0.133671  -0.223002  -0.090024  -0.241509
   53  H 13  S   -0.044580  -0.348168   0.224151  -0.008020   0.658712
   54  H 14  S   -0.008490   0.229476  -0.025516   0.225348  -0.287805
   55  H 15  S    0.070612  -0.286927   0.231138   0.030369   0.443623
   56  H 16  S    0.005501  -0.319558   0.335647   0.216560  -0.236038
   57  H 17  S   -0.041542  -0.514819   0.257950  -0.047014  -0.510834
   58  H 18  S    0.029715  -0.527535  -0.085852   0.195520  -0.235573
   59  H 19  S   -0.012756  -0.460864  -0.417814   0.428393  -0.172259
   60  H 20  S    0.090175  -0.136385  -0.388741   0.657586   0.088054

                     46         47         48         49         50
                    0.6606     0.6978     0.7140     0.7292     0.7433
                     A          A          A          A          A   
    1  C  1  S    0.026789  -0.102664  -0.055977   0.120587  -0.070273
    2  C  1  S   -0.165473   0.653909   0.348603  -0.770336   0.443726
    3  C  1  X    0.095791   0.001061  -0.168212   0.149264   0.089766
    4  C  1  Y   -0.284398  -0.161224   0.170369  -0.507938   0.030107
    5  C  1  Z   -0.020362  -0.440126   0.127878   0.127940  -0.346834
    6  C  2  S   -0.008830   0.053626   0.077977  -0.012860  -0.012539
    7  C  2  S    0.051559  -0.326339  -0.484259   0.080351   0.105881
    8  C  2  X    0.007856   0.096170  -0.029357   0.130457   0.067956
    9  C  2  Y   -0.100601  -0.018010   0.062068  -0.129427  -0.042941
   10  C  2  Z   -0.120576  -0.114560   0.073663  -0.284992   0.013369
   11  C  3  S    0.002495  -0.062143  -0.127781  -0.091530  -0.073306
   12  C  3  S   -0.018159   0.385412   0.816206   0.588352   0.462574
   13  C  3  X    0.108804   0.008462  -0.331545   0.004030  -0.091752
   14  C  3  Y    0.012719   0.113103   0.165061   0.392574   0.307536
   15  C  3  Z   -0.234035  -0.283858   0.241650  -0.372047   0.063837
   16  C  4  S    0.017325  -0.015759  -0.057561   0.025030   0.126597
   17  C  4  S   -0.117205   0.099293   0.373984  -0.139304  -0.789317
   18  C  4  X    0.167255   0.179525   0.135496  -0.061746  -0.159383
   19  C  4  Y    0.006290  -0.103111  -0.026055  -0.067128   0.145737
   20  C  4  Z   -0.544066  -0.131328   0.146167   0.223278  -0.026007
   21  C  5  S    0.006033   0.044455   0.067383  -0.000096  -0.144975
   22  C  5  S   -0.044309  -0.277754  -0.435315   0.003594   0.922890
   23  C  5  X    0.177398  -0.008167   0.031068  -0.056950  -0.161933
   24  C  5  Y   -0.028156  -0.112038   0.007521   0.030023   0.040809
   25  C  5  Z   -0.270320  -0.049734   0.030044   0.188943  -0.044579
   26  C  6  S    0.070578  -0.090829   0.008528  -0.044863   0.116131
   27  C  6  S   -0.417705   0.574244  -0.046576   0.262956  -0.728042
   28  C  6  X   -0.071272   0.350981  -0.080619  -0.078788  -0.125327
   29  C  6  Y   -0.455587  -0.103510  -0.063648   0.199161   0.218368
   30  C  6  Z   -0.128608  -0.199630   0.307373   0.071627  -0.117001
   31  C  7  S   -0.111124   0.088922  -0.074843   0.042309  -0.027447
   32  C  7  S    0.681525  -0.579681   0.472769  -0.257336   0.167934
   33  C  7  X    0.073620  -0.133546  -0.041187   0.045013   0.053533
   34  C  7  Y   -0.257683   0.045410   0.083652   0.149246  -0.122545
   35  C  7  Z   -0.058037   0.048141   0.023428   0.086934  -0.120697
   36  C  8  S    0.091576  -0.031381   0.108459   0.006126  -0.032745
   37  C  8  S   -0.552875   0.184147  -0.696344  -0.043583   0.219730
   38  C  8  X   -0.011139   0.032204   0.047240   0.026353  -0.039221
   39  C  8  Y   -0.154423  -0.248986  -0.001903   0.062645   0.059234
   40  C  8  Z   -0.083374   0.026111  -0.070279  -0.105033   0.036960
   41  C  9  S    0.002447   0.035332  -0.036844  -0.046875  -0.023050
   42  C  9  S   -0.027158  -0.225351   0.219159   0.283491   0.136899
   43  C  9  X    0.151654  -0.076975   0.074977  -0.047247  -0.089211
   44  C  9  Y    0.041363  -0.123126   0.219443  -0.044330  -0.170487
   45  C  9  Z   -0.320304  -0.037719  -0.365188  -0.021640   0.211188
   46  O 10  S   -0.017170  -0.021037   0.005167   0.010547   0.008678
   47  O 10  S    0.122577   0.143889  -0.032490  -0.070635  -0.058980
   48  O 10  X   -0.013476   0.064286  -0.023687  -0.004062   0.008175
[...]
   29  C  6  Y    0.390978   0.509905  -0.169485  -0.159624   0.003890
   30  C  6  Z   -0.479455   0.447829  -0.014468   0.162771   0.039703
   31  C  7  S    0.038550   0.073001   0.014158  -0.006800  -0.016178
   32  C  7  S   -0.219287  -0.429981  -0.096168   0.030737   0.128678
   33  C  7  X    0.132824   0.044664  -0.102894  -0.027341   0.047229
   34  C  7  Y    0.303940   0.282491  -0.286263  -0.080186   0.014407
   35  C  7  Z   -0.265754   0.142675   0.386342   0.079822  -0.183302
   36  C  8  S   -0.023721   0.029758  -0.041945   0.021880  -0.117029
   37  C  8  S    0.148973  -0.194408   0.227701  -0.135590   0.721271
   38  C  8  X    0.048303  -0.016766  -0.156776  -0.022986   0.034557
   39  C  8  Y    0.140597  -0.000451  -0.233949  -0.104802   0.363195
   40  C  8  Z   -0.236938  -0.071030   0.485137   0.025289   0.210069
   41  C  9  S    0.004490  -0.032582   0.152638  -0.053411   0.091734
   42  C  9  S   -0.026958   0.191687  -0.904545   0.315904  -0.533604
   43  C  9  X    0.017643   0.067626  -0.037388  -0.011503  -0.209042
   44  C  9  Y    0.195051  -0.055751   0.145671  -0.229361   0.290161
   45  C  9  Z   -0.233895  -0.047623   0.222421   0.134709   0.177719
   46  O 10  S   -0.001036   0.002819  -0.027354   0.009200   0.003875
   47  O 10  S    0.006415  -0.014193   0.168677  -0.056717  -0.042423
   48  O 10  X   -0.002584  -0.027769   0.054008  -0.010945   0.028975
   49  O 10  Y   -0.066088   0.011057  -0.173081   0.111876   0.039705
   50  O 10  Z    0.068471   0.009708  -0.167844  -0.009703   0.048206
   51  H 11  S    0.171365   0.468914   0.027315   0.263603   0.260354
   52  H 12  S   -0.353600  -0.181403   0.034623  -0.112156  -0.095214
   53  H 13  S    0.187070   0.294836   0.153688   0.545531   0.214156
   54  H 14  S   -0.209063   0.063573  -0.149403  -0.401447   0.047884
   55  H 15  S    0.243626   0.001585   0.167126   0.511615   0.006738
   56  H 16  S    0.361360   0.069494   0.093368  -0.288287  -0.654902
   57  H 17  S    0.253367   0.383464   0.321686  -0.442468  -0.131875
   58  H 18  S    0.005115   0.545728   0.231577  -0.127410   0.035283
   59  H 19  S   -0.228473   0.353217   0.497472   0.083051  -0.220971
   60  H 20  S   -0.339691   0.075798   0.274161   0.197911  -0.674537

                     46         47         48         49         50
                    0.6626     0.6796     0.6804     0.7039     0.7279
                     A          A          A          A          A   
    1  C  1  S    0.046281  -0.074653   0.053135   0.067499   0.124267
    2  C  1  S   -0.248231   0.436867  -0.319345  -0.409770  -0.780364
    3  C  1  X   -0.145145   0.791593   0.151613   0.123663   0.357846
    4  C  1  Y   -0.191367   0.092446  -0.472626  -0.049998   0.109985
    5  C  1  Z   -0.536646   0.177793  -0.024533  -0.004468   0.111497
    6  C  2  S   -0.092567  -0.044294  -0.000875  -0.086136  -0.097423
    7  C  2  S    0.578950   0.279271  -0.011634   0.506356   0.629698
    8  C  2  X    0.223976  -0.086564   0.181604  -0.023343   0.101823
    9  C  2  Y   -0.207734  -0.136505   0.011232   0.022951  -0.270312
   10  C  2  Z    0.053496  -0.172656  -0.153739   0.010630  -0.148645
   11  C  3  S   -0.002577   0.009596  -0.043393   0.197510  -0.041433
   12  C  3  S    0.031581  -0.052294   0.284226  -1.267474   0.289719
   13  C  3  X   -0.147024   0.042814   0.141093   0.216770  -0.112413
   14  C  3  Y    0.049666   0.023788   0.187664  -0.366954   0.247982
   15  C  3  Z    0.025910   0.090099  -0.191407  -0.120417   0.106148
   16  C  4  S    0.000142  -0.010022  -0.066746  -0.011962   0.002495
   17  C  4  S   -0.003332   0.060358   0.399589   0.072478  -0.012243
   18  C  4  X   -0.017509   0.147733  -0.024068  -0.026163  -0.036560
   19  C  4  Y   -0.025345   0.031677  -0.012981   0.001747   0.053545
   20  C  4  Z    0.249575   0.198232  -0.125556  -0.014204   0.132656
   21  C  5  S    0.000414  -0.008797   0.155389   0.026398  -0.033530
   22  C  5  S    0.022627   0.070121  -0.973429  -0.164388   0.223592
   23  C  5  X    0.075451  -0.243478   0.023612   0.043116   0.097675
   24  C  5  Y    0.007049  -0.046311   0.229592   0.051598  -0.023746
   25  C  5  Z    0.173597   0.096791   0.177265   0.026874   0.001731
   26  C  6  S   -0.113766   0.042947  -0.103831  -0.009564   0.091123
   27  C  6  S    0.660265  -0.239324   0.615218   0.052032  -0.576632
   28  C  6  X   -0.289100   0.828917   0.044035  -0.114246  -0.438230
   29  C  6  Y    0.305233   0.357513  -0.111166  -0.032183   0.187783
   30  C  6  Z   -0.099821   0.213056   0.360699   0.086663   0.211031
   31  C  7  S    0.137839   0.053385  -0.013742  -0.015514  -0.065508
   32  C  7  S   -0.861662  -0.323509   0.102976   0.105116   0.429555
   33  C  7  X    0.076038  -0.194732  -0.018266   0.032218   0.100436
   34  C  7  Y    0.202493   0.141735   0.126929   0.005286  -0.016461
   35  C  7  Z    0.224184  -0.012498  -0.034931   0.001070  -0.011570
   36  C  8  S   -0.063656  -0.042280   0.017175   0.011439   0.031460
   37  C  8  S    0.374763   0.256782  -0.108827  -0.067545  -0.197935
   38  C  8  X   -0.079603   0.124938   0.072556   0.009594  -0.016352
   39  C  8  Y   -0.087402   0.077590   0.206462   0.062001   0.172018
   40  C  8  Z    0.062079   0.040652  -0.112784  -0.023084   0.000355
   41  C  9  S    0.014939   0.004642   0.002857  -0.003936  -0.028974
   42  C  9  S   -0.085119  -0.022959  -0.014585   0.028603   0.180831
   43  C  9  X   -0.025185  -0.134063   0.010403   0.018331  -0.021053
   44  C  9  Y   -0.103914  -0.035047   0.190325   0.065218   0.106945
   45  C  9  Z    0.241809   0.087263  -0.219232  -0.035843  -0.021442
   46  O 10  S    0.001163   0.003999  -0.000179   0.003392   0.015622
   47  O 10  S   -0.010728  -0.029885   0.000127  -0.023268  -0.107611
   48  O 10  X   -0.004861   0.037037  -0.004269  -0.017020  -0.043658
   49  O 10  Y    0.059568   0.058908  -0.054836   0.005899   0.083862
   50  O 10  Z   -0.056168   0.011052   0.072515   0.031127   0.095648
   51  H 11  S   -0.206961  -0.119857  -0.298495   0.135675   0.415404
   52  H 12  S   -0.160200   0.050543   0.479405   0.219478   0.451133
   53  H 13  S   -0.446173  -0.204530   0.103466  -0.279797  -0.450193
   54  H 14  S   -0.008310   0.033800  -0.405428   0.853870  -0.298959
   55  H 15  S   -0.112815   0.002943   0.107295   0.816708  -0.238994
   56  H 16  S   -0.250622  -0.220147  -0.106510  -0.025963  -0.102260
   57  H 17  S   -0.046528  -0.066495   0.637651   0.113860  -0.143197
   58  H 18  S   -0.003922  -0.120700  -0.236865   0.047986   0.670893
   59  H 19  S    0.618050   0.183872  -0.093153  -0.064324  -0.258848
   60  H 20  S   -0.106699  -0.214985  -0.177185  -0.028533  -0.042396

                     51         52         53         54         55
                    0.7444     0.7805     0.7849     0.8861     0.8953
                     A          A          A          A          A   
    1  C  1  S   -0.062453   0.129169   0.020967  -0.012718   0.022750
    2  C  1  S    0.408778  -0.831787  -0.123295   0.086025  -0.147303
    3  C  1  X    0.022154  -0.058217   0.023150  -0.001839  -0.019306
    4  C  1  Y    0.366350   0.365084   0.487635   0.079538   0.085618
    5  C  1  Z   -0.510435   0.431408  -0.266346  -0.103338  -0.000706
    6  C  2  S   -0.058548  -0.025335  -0.071565  -0.016490   0.004195
    7  C  2  S    0.391017   0.168423   0.480890   0.117733  -0.027875
    8  C  2  X    0.043258  -0.017924   0.035904  -0.033199   0.076800
    9  C  2  Y   -0.049686  -0.040068  -0.036632  -0.012460   0.162657
   10  C  2  Z    0.063411  -0.030586   0.021071   0.052756  -0.108449
   11  C  3  S    0.013341  -0.009147   0.009431   0.007342  -0.000602
   12  C  3  S   -0.085831   0.064342  -0.061589  -0.052717   0.000253
   13  C  3  X   -0.186070  -0.143761  -0.218765  -0.003139  -0.161227
   14  C  3  Y    0.054604   0.022689   0.121397   0.095027  -0.112448
   15  C  3  Z    0.121028   0.167480   0.166152  -0.027280   0.181581
   16  C  4  S   -0.115671  -0.053721   0.063928  -0.003514   0.032741
   17  C  4  S    0.753320   0.360075  -0.432074   0.029444  -0.234959
   18  C  4  X   -0.016172  -0.022032   0.042785  -0.055234   0.052160
   19  C  4  Y    0.056785   0.016391  -0.254761   0.292451   0.069420
   20  C  4  Z    0.117487  -0.083730  -0.258458  -0.623090   0.147593
   21  C  5  S    0.060269   0.017519   0.072218  -0.005878  -0.022280
   22  C  5  S   -0.381474  -0.116654  -0.488551   0.036744   0.155109
   23  C  5  X   -0.005027  -0.010875  -0.025260   0.074320  -0.074799
   24  C  5  Y   -0.117065  -0.175970   0.218203  -0.587996   0.435581
   25  C  5  Z   -0.078682  -0.105202   0.175010   0.381983  -0.096559
   26  C  6  S    0.010412  -0.092814  -0.030881  -0.001541   0.016697
   27  C  6  S   -0.056173   0.582215   0.199322   0.011016  -0.103417
   28  C  6  X    0.079478   0.291673   0.124308  -0.018302   0.069136
   29  C  6  Y   -0.136993  -0.149114  -0.436235  -0.148890  -0.370899
   30  C  6  Z    0.214292  -0.375083   0.328118   0.267595  -0.245287
   31  C  7  S   -0.066726   0.067570  -0.044194   0.009079  -0.021480
   32  C  7  S    0.422505  -0.452550   0.300564  -0.058526   0.151732
   33  C  7  X   -0.066738   0.009140  -0.013065  -0.149244  -0.170026
   34  C  7  Y    0.117661   0.065258  -0.227634  -0.225578  -0.051926
   35  C  7  Z    0.069659   0.037949  -0.231154   0.506776   0.589792
   36  C  8  S    0.116607   0.012654  -0.077402  -0.003130   0.035732
   37  C  8  S   -0.762868  -0.086263   0.520009   0.017517  -0.257045
   38  C  8  X    0.032511  -0.010179  -0.044069   0.142003   0.104524
   39  C  8  Y   -0.132280  -0.287215   0.158728   0.488706   0.290183
   40  C  8  Z    0.023507  -0.136746   0.200069  -0.382354  -0.056798
   41  C  9  S    0.005047   0.030721   0.015456   0.013806  -0.110874
   42  C  9  S   -0.031574  -0.196769  -0.099413  -0.090695   0.730896
   43  C  9  X    0.033332   0.091968  -0.026606   0.063375  -0.252073
   44  C  9  Y    0.344430   0.064928  -0.398889   0.205642   0.533803
   45  C  9  Z   -0.425675  -0.269646   0.416693  -0.369280   0.329219
   46  O 10  S   -0.001424  -0.020985  -0.008876  -0.010228   0.084396
   47  O 10  S    0.009509   0.147397   0.062266   0.073867  -0.611161
   48  O 10  X   -0.004639   0.040519   0.034840   0.016544  -0.208178
   49  O 10  Y   -0.109144  -0.176329   0.040866  -0.131663   0.505002
   50  O 10  Z    0.118067  -0.050198  -0.161603   0.036650   0.410305
   51  H 11  S   -0.029879   0.794930   0.363841  -0.002246   0.113375
   52  H 12  S   -0.701979   0.403535  -0.362938  -0.130760  -0.002382
   53  H 13  S   -0.221652  -0.121411  -0.243405  -0.067818   0.161226
   54  H 14  S    0.082342   0.015583   0.022492  -0.050864   0.143549
   55  H 15  S   -0.145165  -0.214663  -0.191378   0.041817  -0.199146
   56  H 16  S   -0.449426  -0.082503   0.369427   0.507041  -0.023851
   57  H 17  S    0.119666  -0.042747   0.330360  -0.545981   0.277208
   58  H 18  S   -0.010516  -0.647034  -0.267205   0.024089  -0.239376
   59  H 19  S   -0.124314   0.213372  -0.262471   0.455765   0.408748
   60  H 20  S    0.468355   0.228213  -0.287381  -0.478246  -0.146095

                     56         57         58         59         60
                    0.9333     0.9458     1.0467     1.0751     1.1299
                     A          A          A          A          A   
    1  C  1  S   -0.001610  -0.051655  -0.016997  -0.001777  -0.004775
    2  C  1  S    0.012901   0.335536   0.114399   0.010941   0.030894
    3  C  1  X   -0.125218  -0.284479  -0.032324  -0.015488   0.055423
    4  C  1  Y    0.026181   0.205670  -0.291641  -0.127162  -0.046086
    5  C  1  Z    0.074673   0.225678   0.120635   0.086580  -0.024317
    6  C  2  S   -0.005314  -0.012670  -0.102505  -0.023534  -0.006099
    7  C  2  S    0.044876   0.112150   0.837900   0.194553   0.045358
    8  C  2  X   -0.128923  -0.432105  -0.592750  -0.158353  -0.002651
    9  C  2  Y   -0.157780  -0.508402   0.923916   0.243518   0.046129
   10  C  2  Z    0.175134   0.554729   0.358144   0.101586  -0.008816
   11  C  3  S    0.001649   0.004593   0.109736   0.028134   0.003670
   12  C  3  S   -0.011067  -0.029689  -0.885590  -0.228979  -0.029988
   13  C  3  X    0.136073   0.418061  -0.547167  -0.135605  -0.027419
   14  C  3  Y    0.175708   0.527581   0.888939   0.224464   0.025723
   15  C  3  Z   -0.181042  -0.549313   0.337583   0.080644   0.018559
   16  C  4  S    0.061467  -0.013356   0.016524  -0.055844  -0.062107
   17  C  4  S   -0.475551   0.106333  -0.139326   0.477502   0.502246
   18  C  4  X   -0.025110   0.029128  -0.028023   0.081969   0.037141
   19  C  4  Y    0.653847  -0.214994   0.191669  -0.698657  -0.244357
   20  C  4  Z   -0.140989   0.094514   0.164910  -0.429653  -0.673554
   21  C  5  S   -0.054941   0.010386  -0.021281   0.058614   0.065044
   22  C  5  S    0.426961  -0.090569   0.177756  -0.498013  -0.529140
   23  C  5  X   -0.031806  -0.028956   0.003677   0.022110   0.053418
   24  C  5  Y    0.098631   0.106787   0.174844  -0.557564  -0.569928
   25  C  5  Z    0.636608  -0.289455   0.135523  -0.590401  -0.159751
   26  C  6  S   -0.080645   0.029311   0.001759  -0.001280  -0.010783
   27  C  6  S    0.530102  -0.188481  -0.009913   0.008735   0.066425
   28  C  6  X    0.151675   0.050166  -0.016789   0.020423  -0.032573
   29  C  6  Y    0.050373  -0.137193   0.003522   0.236877   0.229747
   30  C  6  Z    0.022966  -0.158075   0.017709  -0.276123   0.192935
   31  C  7  S   -0.050316   0.014660   0.017991  -0.057802   0.065491
   32  C  7  S    0.394769  -0.119471  -0.149242   0.495008  -0.535771
   33  C  7  X    0.047977  -0.054908   0.000839   0.004122   0.086105
   34  C  7  Y    0.656897  -0.223454  -0.150079   0.700589  -0.291835
   35  C  7  Z   -0.056054   0.104750  -0.120193   0.423358  -0.524120
   36  C  8  S    0.060520  -0.014747  -0.013286   0.056097  -0.062879
   37  C  8  S   -0.469724   0.114498   0.112968  -0.480695   0.510214
   38  C  8  X   -0.113279   0.044479   0.025197  -0.098843  -0.021191
   39  C  8  Y   -0.035281  -0.003485  -0.147401   0.571530  -0.719799
   40  C  8  Z    0.661979  -0.199026  -0.153970   0.589309  -0.115186
   41  C  9  S    0.034286  -0.037004   0.001574   0.000197  -0.029891
   42  C  9  S   -0.232686   0.245981  -0.012088  -0.001749   0.209881
   43  C  9  X   -0.171472  -0.022255   0.017950  -0.029175  -0.221187
   44  C  9  Y    0.314080   0.031682   0.027313  -0.237906   0.656437
   45  C  9  Z    0.241021   0.041399  -0.104207   0.282747   0.509786
   46  O 10  S    0.023331   0.014373  -0.003661  -0.000404   0.065792
   47  O 10  S   -0.177643  -0.103476   0.027873   0.003215  -0.508294
   48  O 10  X   -0.050219  -0.036907   0.009559   0.006334  -0.183025
   49  O 10  Y    0.139582   0.090554  -0.031657   0.036612   0.384240
   50  O 10  Z    0.107622   0.064891  -0.003542  -0.049782   0.293862
   51  H 11  S    0.056518   0.109570  -0.166668  -0.053307  -0.043628
   52  H 12  S    0.015609  -0.138630   0.139699   0.089764   0.006686
   53  H 13  S   -0.189158  -0.598000   0.121083   0.036562   0.016207
   54  H 14  S   -0.183819  -0.549833  -0.116705  -0.029118  -0.002095
   55  H 15  S    0.186818   0.562076  -0.081545  -0.015396  -0.010274
   56  H 16  S    0.338930  -0.129868  -0.047374   0.068960   0.241113
   57  H 17  S   -0.235861   0.183474   0.022595  -0.055791  -0.141180
   58  H 18  S   -0.210344  -0.063582   0.020265   0.005253   0.117836
   59  H 19  S   -0.246052   0.150386  -0.020158   0.051278  -0.142107
   60  H 20  S    0.360807  -0.090912   0.021939  -0.069342   0.242860

 THE NUCLEAR REPULSION AT THE IRC POINT IS      494.9163518350

 * * * IRC RESTART INFORMATION * * *
 COORDINATES FOR $DATA AND ENTIRE $IRC GROUP FOLLOW

 COORDINATES OF SYMMETRY UNIQUE ATOMS (ANGS)
   ATOM   CHARGE       X              Y              Z
 ------------------------------------------------------------
 C           6.0   3.9130316013  -0.8956912938  -3.0524224887
 C           6.0   2.8135080564  -0.9151104316  -1.9900668652
 C           6.0   2.1417690726   0.1275067183  -1.5718423681
 C           6.0   5.3376701748   0.4112626742  -0.1596921912
 C           6.0   5.4208759795  -0.6024526168  -0.9912597902
 C           6.0   5.3282185993  -0.4448381871  -2.5065298890
 C           6.0   5.6193930056   0.9912914443  -2.9316553638
 C           6.0   5.5415465205   2.0161822186  -2.1152804489
 C           6.0   5.1811472066   1.8309421822  -0.6589822240
 O           8.0   4.7857972646   2.7501988837   0.0488061767
 H           1.0   4.0076052128  -1.8946319213  -3.4720780825
 H           1.0   3.6292496993  -0.2310654649  -3.8660304208
 H           1.0   2.6190338797  -1.8862098954  -1.5483132998
 H           1.0   2.3002699380   1.1200284505  -1.9714400725
 H           1.0   1.3887857142   0.0462779230  -0.8001323692
 H           1.0   5.3613477940   0.2732030347   0.9138552836
 H           1.0   5.5166085909  -1.6181619461  -0.6230291822
 H           1.0   6.0734390507  -1.0931160937  -2.9707643065
 H           1.0   5.8594919094   1.1304139441  -3.9803218087
 H           1.0   5.7124645385   3.0310983483  -2.4509615873
 $IRC   PACE=GS2        STRIDE= 0.10000   NPOINT=??
        STOTAL=  9.998337   NEXTPT= 101
        NPRT= 0   NPUN= 0   SADDLE=.FALSE.
        GA(   1)=-2.728565362E-04, 1.139299346E-03,-4.158787466E-04
        GA(   4)=-2.490763003E-04, 4.960204597E-06,-2.988470186E-04
        GA(   7)= 1.279559817E-03,-2.614280263E-04, 2.365456211E-03
        GA(  10)=-5.586063971E-04,-1.912388545E-05,-1.279656467E-04
        GA(  13)=-3.496412582E-04,-8.561704732E-05,-1.891746210E-05
        GA(  16)= 2.731332224E-05,-8.124106326E-05,-5.591180250E-05
        GA(  19)= 1.234534584E-03,-3.010351713E-04, 1.184939669E-05
        GA(  22)= 9.411286902E-04,-2.076880635E-04,-1.053351928E-04
        GA(  25)=-4.336022154E-04,-1.020891355E-04,-4.113656015E-04
        GA(  28)=-1.883142106E-03,-1.708706465E-04,-1.237071209E-03
        GA(  31)=-5.954890855E-05, 1.613755973E-04,-1.619137989E-04
        GA(  34)=-2.308675306E-05, 2.124116047E-04, 4.595447203E-05
        GA(  37)=-1.250599006E-04,-1.007134638E-04,-2.246564860E-04
        GA(  40)= 2.115974469E-04, 4.503047404E-05, 4.104656742E-04
        GA(  43)= 9.484976393E-05,-1.012419750E-04, 1.962683237E-04
        GA(  46)=-7.589636247E-05, 7.702537165E-06,-1.336816085E-05
        GA(  49)=-4.392522776E-05,-9.424470676E-06, 9.247414971E-07
        GA(  52)=-3.358475085E-05,-6.002563362E-05, 8.072220281E-06
        GA(  55)= 1.813290783E-04,-4.211962555E-05, 3.029645202E-05
        GA(  58)= 1.377140872E-04,-2.816155710E-05, 1.943619295E-06
 $END   
 A GS2 RESTART ALSO REQUIRES THE UPDATED $HESS GROUP FROM THE PUNCH FILE
 ......DONE WITH THIS PORTION OF THE IRC......
 STEP CPU TIME =     0.01 TOTAL CPU TIME =        220.4 (      3.7 MIN)
 TOTAL WALL CLOCK TIME=        225.4 SECONDS, CPU UTILIZATION IS    97.80%
               580000  WORDS OF DYNAMIC MEMORY USED
 EXECUTION OF GAMESS TERMINATED NORMALLY Mon Nov 15 04:11:53 2021
 DDI: 263640 bytes (0.3 MB / 0 MWords) used by master data server.

 ----------------------------------------
 CPU timing information for all processes
 ========================================
 0: 203.418 + 17.38 = 220.457
 ----------------------------------------
 ddikick.x: exited gracefully.
----- accounting info -----
Files used on the master node chemcompute-node-0.novalocal were:
-rw-r--r--. 1 chemcomp chemcomp    60521 Nov 15 04:08 /scratch/306655/342669.F05
-rw-rw-r--. 1 chemcomp chemcomp 17461552 Nov 15 04:11 /scratch/306655/342669.F08
-rw-rw-r--. 1 chemcomp chemcomp 52428800 Nov 15 04:11 /scratch/306655/342669.F10
Mon Nov 15 04:11:56 UTC 2021
0.143u 0.079s 3:50.73 0.0%	0+0k 120+328io 0pf+0w
Finishing Up...
Looking for IR data...
Looking for Raman data...
vibramans not found
Looking for thermodynamics data...
Looking for UV-Vis data...
306655
